ITEM: TIMESTEP
0
ITEM: NUMBER OF ATOMS
4000
ITEM: BOX BOUNDS pp pp pp
0.0000000000000000e+00 7.9266000000000005e+01
0.0000000000000000e+00 7.9266000000000005e+01
-5.0000000000000000e-01 5.0000000000000000e-01
ITEM: ATOMS id type x y z xu yu zu vx vy fx fy mux muy mu radius omegaz mass
1 1 26.2063 44.9391 0 26.2063 44.9391 0 646.448 4.1951 95.5607 9.87064 0.999131 0.0416833 1 0.5 0 1
2 1 45.1878 24.9856 0 45.1878 24.9856 0 34.9524 -35.6922 -94.141 -33.7264 -0.94141 -0.337264 1 0.5 0 1
3 1 53.1269 32.953 0 53.1269 32.953 0 -790.167 -113.733 -86.0024 12.4595 -0.983106 0.183038 1 0.5 0 1
4 1 63.5952 67.8612 0 63.5952 67.8612 0 432.412 -198.141 -51.9469 65.2196 -0.609919 0.792464 1 0.5 0 1
5 1 60.182 53.193 0 60.182 53.193 0 -296.881 -499.15 -59.9289 -111.844 -0.657091 -0.753811 1 0.5 0 1
6 1 54.7829 34.8038 0 54.7829 34.8038 0 118.456 -208.238 -51.2118 -53.6222 -0.335502 -0.94204 1 0.5 0 1
7 1 43.7112 41.9965 0 43.7112 41.9965 0 -29.0495 366.684 75.6728 -72.4076 0.836029 -0.548685 1 0.5 0 1
8 1 43.0136 32.2643 0 43.0136 32.2643 0 -784.112 -493.891 -57.2333 -85.1607 -0.569553 -0.821954 1 0.5 0 1
9 1 24.7538 38.0479 0 24.7538 38.0479 0 24.5082 -1054 94.4213 -32.9334 0.944213 -0.329334 1 0.5 0 1
10 1 56.7927 77.5863 0 56.7927 77.5863 0 59.2106 -44.9817 1.18979 -99.9929 0.0118979 -0.999929 1 0.5 0 1
11 1 27.0005 46.9718 0 27.0005 46.9718 0 397.828 -208.734 -92.169 37.5657 -0.898427 0.439123 1 0.5 0 1
12 1 56.5089 41.1291 0 56.5089 41.1291 0 143.003 411.108 -1.74563 99.9848 -0.0174563 0.999848 1 0.5 0 1
13 1 34.1689 77.2867 0 34.1689 77.2867 0 -425.907 -408.046 -44.6015 -33.3891 -0.500578 -0.865691 1 0.5 0 1
14 1 1.1364 70.2421 0 1.1364 70.2421 0 -139.959 -13.825 -37.9419 -64.2328 -0.623505 -0.781819 1 0.5 0 1
15 1 73.5435 51.3162 0 73.5435 51.3162 0 487.663 -248.921 -97.0839 -23.9732 -0.970839 -0.239732 1 0.5 0 1
16 1 9.68857 12.03 0 9.68857 12.03 0 142.046 260.9 -73.8541 -46.9233 -0.939678 -0.342061 1 0.5 0 1
17 1 55.9926 34.7725 0 55.9926 34.7725 0 395.933 -332.989 -108.878 -28.1914 -0.946791 -0.321848 1 0.5 0 1
18 1 55.2621 44.5916 0 55.2621 44.5916 0 268.041 -279.712 -102.989 -56.1867 -0.951276 -0.30834 1 0.5 0 1
19 1 32.5006 66.6878 0 32.5006 66.6878 0 -829.56 129.009 -83.9109 -54.3963 -0.839109 -0.543963 1 0.5 0 1
20 1 12.0472 27.3498 0 12.0472 27.3498 0 687.145 282.059 17.299 100.719 0.192515 0.981294 1 0.5 0 1
21 1 59.7642 78.6055 0 59.7642 -0.660489 0 677.299 495.066 -71.2655 -70.1515 -0.712655 -0.701515 1 0.5 0 1
22 1 29.0771 35.4136 0 29.0771 35.4136 0 -75.7412 637.627 99.9346 3.61737 0.999346 0.0361737 1 0.5 0 1
23 1 42.2235 34.2156 0 42.2235 34.2156 0 33.2347 320.53 -61.7675 -62.4864 -0.821686 -0.56994 1 0.5 0 1
24 1 46.4808 2.57053 0 46.4808 2.57053 0 358.09 325.455 85.7647 51.4238 0.857647 0.514238 1 0.5 0 1
25 1 33.2168 4.73924 0 33.2168 4.73924 0 -411.363 -210.143 -94.4507 -20.653 -0.977265 -0.212023 1 0.5 0 1
26 1 30.4297 14.4065 0 30.4297 14.4065 0 549.112 655.502 71.2685 -70.1484 0.712685 -0.701484 1 0.5 0 1
27 1 40.7669 10.1357 0 40.7669 10.1357 0 260.262 -180.691 69.9576 -66.8527 0.92566 -0.378357 1 0.5 0 1
28 1 33.078 28.0117 0 33.078 28.0117 0 -305.607 -7.92818 52.3307 41.7777 0.842845 0.538156 1 0.5 0 1
29 1 4.1004 8.26759 0 4.1004 8.26759 0 -41.2015 -47.2578 -79.3634 60.8396 -0.793634 0.608396 1 0.5 0 1
30 1 42.4057 75.3501 0 42.4057 75.3501 0 621.712 -144.945 -21.0019 97.7697 -0.210019 0.977697 1 0.5 0 1
31 1 22.0292 67.4546 0 22.0292 67.4546 0 -937.857 -511.273 52.8349 -90.4332 0.682865 -0.730545 1 0.5 0 1
32 1 17.8615 12.9715 0 17.8615 12.9715 0 -626.171 691.027 94.8578 21.4147 0.871625 0.490174 1 0.5 0 1
33 1 28.7074 6.20445 0 28.7074 6.20445 0 -210.152 -546.495 3.6703 -99.9326 0.036703 -0.999326 1 0.5 0 1
34 1 65.1524 43.4046 0 65.1524 43.4046 0 -262.772 196.85 85.1515 -24.9217 0.917864 -0.396896 1 0.5 0 1
35 1 40.3351 62.7506 0 40.3351 62.7506 0 -780.05 720.978 -30.2408 95.3179 -0.302408 0.953179 1 0.5 0 1
36 1 35.7074 53.3441 0 35.7074 53.3441 0 -180.811 -148.666 -23.454 -97.2106 -0.23454 -0.972106 1 0.5 0 1
37 1 47.4129 34.6758 0 47.4129 34.6758 0 321.353 373.378 94.0714 33.9202 0.940714 0.339202 1 0.5 0 1
38 1 79.2123 23.1141 0 79.2123 23.1141 0 -850.618 555.08 94.5888 32.4493 0.945888 0.324493 1 0.5 0 1
39 1 31.0066 33.5326 0 31.0066 33.5326 0 -547.506 47.5914 -32.4404 -94.5919 -0.324404 -0.945919 1 0.5 0 1
40 1 7.01035 11.9433 0 7.01035 11.9433 0 -27.0129 -101.561 -25.206 -93.1415 -0.134688 -0.990888 1 0.5 0 1
41 1 47.471 78.6927 0 47.471 78.6927 0 196.792 442.489 88.1504 -47.2177 0.881504 -0.472177 1 0.5 0 1
42 1 38.9504 75.9071 0 38.9504 75.9071 0 -675.006 278.003 -52.9212 -84.849 -0.529212 -0.84849 1 0.5 0 1
43 1 28.9457 51.8679 0 28.9457 51.8679 0 371.136 -112.828 -80.7801 39.2231 -0.913467 0.406913 1 0.5 0 1
44 1 0.332004 65.9842 0 79.598 65.9842 0 -763.856 148.451 -64.7287 95.0706 -0.512317 0.858796 1 0.5 0 1
45 1 32.1956 63.789 0 32.1956 63.789 0 -76.8534 -51.2939 -80.7644 69.6253 -0.668722 0.743513 1 0.5 0 1
46 1 52.6552 21.6334 0 52.6552 21.6334 0 -119.335 -1683.57 -85.2591 -52.2579 -0.852591 -0.522579 1 0.5 0 1
47 1 14.702 25.4824 0 14.702 25.4824 0 356.309 970.001 37.1482 -104.804 0.0344886 -0.999405 1 0.5 0 1
48 1 72.0799 59.1522 0 72.0799 59.1522 0 -59.3032 429.782 -61.1917 -79.0922 -0.611917 -0.790922 1 0.5 0 1
49 1 56.0251 66.2245 0 56.0251 66.2245 0 311.54 -261.285 15.6024 113.193 0.114915 0.993375 1 0.5 0 1
50 1 56.3526 33.5839 0 56.3526 33.5839 0 427.561 193.432 98.1058 -19.3716 0.981058 -0.193716 1 0.5 0 1
51 1 25.0054 9.67212 0 25.0054 9.67212 0 185.108 55.9982 39.7513 88.7472 0.423659 0.905822 1 0.5 0 1
52 1 54.989 8.90154 0 54.989 8.90154 0 383.394 188.356 81.2441 41.9552 0.951522 0.307582 1 0.5 0 1
53 1 49.7569 48.7197 0 49.7569 48.7197 0 -585.962 -77.1514 -98.3603 18.0346 -0.983603 0.180346 1 0.5 0 1
54 1 24.0091 43.7942 0 24.0091 43.7942 0 -1052.31 88.4629 77.3096 -63.429 0.773096 -0.63429 1 0.5 0 1
55 1 68.9526 69.7535 0 68.9526 69.7535 0 226.098 278.204 56.2969 82.6478 0.562969 0.826478 1 0.5 0 1
56 1 31.7345 77.5369 0 31.7345 77.5369 0 -61.8931 -1241.27 11.5042 -99.3361 0.115042 -0.993361 1 0.5 0 1
57 1 12.005 55.3207 0 12.005 55.3207 0 234.367 -17.3938 -10.885 99.4058 -0.10885 0.994058 1 0.5 0 1
58 1 39.6791 10.8583 0 39.6791 10.8583 0 115.232 13.0758 -92.4185 38.1946 -0.924185 0.381946 1 0.5 0 1
59 1 37.1264 0.609697 0 37.1264 0.609697 0 200.082 -811.212 79.5425 60.6051 0.795425 0.606051 1 0.5 0 1
60 1 63.5601 51.5615 0 63.5601 51.5615 0 -411.06 -29.1795 27.9789 -94.4969 0.279871 -0.960038 1 0.5 0 1
61 1 52.9659 54.9076 0 52.9659 54.9076 0 -569.15 234.538 78.3663 -62.1186 0.783663 -0.621186 1 0.5 0 1
62 1 39.9581 53.0664 0 39.9581 53.0664 0 -1077.97 468.664 47.3078 -88.1021 0.473078 -0.881021 1 0.5 0 1
63 1 7.62243 67.1117 0 7.62243 67.1117 0 254.486 -218.986 -64.5269 -76.3956 -0.645269 -0.763956 1 0.5 0 1
64 1 44.5683 28.5813 0 44.5683 28.5813 0 -165.356 106.134 20.1757 59.14 0.246837 0.969057 1 0.5 0 1
65 1 57.6918 37.615 0 57.6918 37.615 0 -1.677 -21.692 133.877 -4.13745 0.997625 0.0688837 1 0.5 0 1
66 1 27.7783 71.5927 0 27.7783 71.5927 0 407.35 58.5948 99.9914 1.30782 0.999914 0.0130782 1 0.5 0 1
67 1 20.784 9.8676 0 20.784 9.8676 0 19.2028 49.1244 -6.98384 99.7558 -0.0698384 0.997558 1 0.5 0 1
68 1 21.9267 19.1083 0 21.9267 19.1083 0 31.2708 547.116 -39.3168 90.0869 -0.0899395 0.995947 1 0.5 0 1
69 1 58.9559 68.8437 0 58.9559 68.8437 0 369.635 148.249 -61.2415 53.7735 -0.783366 0.621561 1 0.5 0 1
70 1 29.4566 49.6365 0 29.4566 49.6365 0 -295.302 89.909 7.35001 109.065 -0.158215 0.987405 1 0.5 0 1
71 1 61.1499 50.9628 0 61.1499 50.9628 0 140.906 570.665 -95.8264 28.5886 -0.958264 0.285886 1 0.5 0 1
72 1 31.0384 48.5107 0 31.0384 48.5107 0 290.069 -114.638 -59.3922 80.4522 -0.593922 0.804522 1 0.5 0 1
73 1 71.1551 43.379 0 71.1551 43.379 0 -691.827 -115.621 -48.8496 -75.7848 -0.359077 -0.933308 1 0.5 0 1
74 1 46.3534 59.2058 0 46.3534 59.2058 0 -265.276 -100.21 64.3018 128.726 0.493699 0.869633 1 0.5 0 1
75 1 24.7274 41.4559 0 24.7274 41.4559 0 399.751 707.709 -68.6324 -69.2459 -0.698728 -0.715388 1 0.5 0 1
76 1 35.9565 14.7783 0 35.9565 14.7783 0 124.144 685.463 -43.183 90.1955 -0.43183 0.901955 1 0.5 0 1
77 1 23.8705 10.7215 0 23.8705 10.7215 0 1116.04 -258.796 -99.5967 -8.97256 -0.995967 -0.0897256 1 0.5 0 1
78 1 49.9195 53.8119 0 49.9195 53.8119 0 -413.194 -829.162 -65.0697 -75.9338 -0.650697 -0.759338 1 0.5 0 1
79 1 61.4509 70.0838 0 61.4509 70.0838 0 -170.666 -29.5502 -115.719 98.2642 -0.607245 0.794514 1 0.5 0 1
80 1 39.7762 2.31779 0 39.7762 2.31779 0 -185.932 -489.219 65.8917 -77.0467 0.686875 -0.726775 1 0.5 0 1
81 1 75.1584 20.3835 0 75.1584 20.3835 0 -821.551 -750.3 97.7387 12.3021 0.989671 0.143355 1 0.5 0 1
82 1 17.7625 9.11311 0 17.7625 9.11311 0 -470.488 457.696 21.2121 97.7243 0.212121 0.977243 1 0.5 0 1
83 1 49.9368 22.2253 0 49.9368 22.2253 0 -794.249 -99.6071 -0.714164 97.8013 -0.101527 0.994833 1 0.5 0 1
84 1 15.2082 27.6349 0 15.2082 27.6349 0 -340.564 -137.467 -84.6216 53.5898 -0.850759 0.525557 1 0.5 0 1
85 1 55.4055 25.1557 0 55.4055 25.1557 0 -443.765 48.5203 -23.4414 -97.2137 -0.234414 -0.972137 1 0.5 0 1
86 1 44.6962 29.6524 0 44.6962 29.6524 0 644.695 -5.26887 59.7554 -110.791 -0.0425377 -0.999095 1 0.5 0 1
87 1 53.0288 20.4942 0 53.0288 20.4942 0 -393.373 26.7493 -28.7855 95.7674 -0.287855 0.957674 1 0.5 0 1
88 1 50.4221 8.86904 0 50.4221 8.86904 0 869.124 182.033 141.173 85.8482 0.644036 0.764995 1 0.5 0 1
89 1 18.1601 33.413 0 18.1601 33.413 0 11.2108 711.125 66.7583 54.8184 0.763233 0.646124 1 0.5 0 1
90 1 19.4775 68.8102 0 19.4775 68.8102 0 43.1647 -427.776 82.1802 -14.8595 0.964468 -0.264198 1 0.5 0 1
91 1 12.6427 11.2166 0 12.6427 11.2166 0 -655.178 311.647 96.7148 25.4212 0.967148 0.254212 1 0.5 0 1
92 1 51.0803 51.7969 0 51.0803 51.7969 0 506.73 182.041 -47.2834 -87.0003 -0.258747 -0.965945 1 0.5 0 1
93 1 11.8556 28.8777 0 11.8556 28.8777 0 23.108 331.252 67.2935 73.9702 0.672935 0.739702 1 0.5 0 1
94 1 72.8129 0.0975058 0 72.8129 0.0975058 0 526.898 -1422.71 -58.5566 76.4956 -0.640643 0.767839 1 0.5 0 1
95 1 42.2891 46.0425 0 42.2891 46.0425 0 541.428 414.488 96.4053 -26.5712 0.964053 -0.265712 1 0.5 0 1
96 1 38.0296 41.5817 0 38.0296 41.5817 0 -19.8845 -16.9161 88.9236 -45.7449 0.889236 -0.457449 1 0.5 0 1
97 1 71.6642 39.6855 0 71.6642 39.6855 0 339.804 586.246 -101.787 -62.8289 -0.848568 -0.529086 1 0.5 0 1
98 1 11.2189 74.067 0 11.2189 74.067 0 183.021 -353.901 -70.2972 -71.1218 -0.702972 -0.711218 1 0.5 0 1
99 1 78.849 19.2683 0 78.849 19.2683 0 -669.434 -13.3261 -43.682 -89.9549 -0.43682 -0.899549 1 0.5 0 1
100 1 58.9301 25.464 0 58.9301 25.464 0 195.566 242.845 50.0037 86.6004 0.500037 0.866004 1 0.5 0 1
101 1 32.4428 68.1035 0 32.4428 68.1035 0 -121.917 213.302 91.1263 -41.1826 0.911263 -0.411826 1 0.5 0 1
102 1 33.7218 20.1581 0 33.7218 20.1581 0 443.876 283.806 -39.9283 91.6828 -0.399283 0.916828 1 0.5 0 1
103 1 52.2061 45.0592 0 52.2061 45.0592 0 -302.031 58.4219 -67.1633 63.4181 -0.742299 0.670068 1 0.5 0 1
104 1 28.0449 76.9972 0 28.0449 76.9972 0 -239.197 590.84 48.9993 87.1378 0.465854 0.884862 1 0.5 0 1
105 1 15.6331 8.39435 0 15.6331 8.39435 0 -220.466 55.5839 -55.3848 83.2618 -0.553848 0.832618 1 0.5 0 1
106 1 65.1238 40.9734 0 65.1238 40.9734 0 265.202 346.863 -94.4507 32.849 -0.944507 0.32849 1 0.5 0 1
107 1 63.7455 12.8735 0 63.7455 12.8735 0 129.109 -234.972 -51.8116 85.531 -0.518116 0.85531 1 0.5 0 1
108 1 11.3478 68.4834 0 11.3478 68.4834 0 460.109 439.054 -36.9824 92.9102 -0.369824 0.929102 1 0.5 0 1
109 1 28.5121 48.0238 0 28.5121 48.0238 0 -7.46398 -333.201 -92.7437 -28.5539 -0.962198 -0.27235 1 0.5 0 1
110 1 21.2627 37.8234 0 21.2627 37.8234 0 -11.1173 38.9155 -39.1584 -84.6613 -0.454322 -0.890837 1 0.5 0 1
111 1 21.9348 36.6033 0 21.9348 36.6033 0 57.5746 -111.424 -63.7392 -27.8528 -0.737411 -0.675444 1 0.5 0 1
112 1 34.7504 73.9917 0 34.7504 73.9917 0 460.303 -317.942 26.3469 -96.4668 0.263469 -0.964668 1 0.5 0 1
113 1 79.0604 5.05727 0 -0.205578 5.05727 0 -119.462 -59.8246 -122.334 19.4637 -0.945107 -0.326761 1 0.5 0 1
114 1 37.9435 33.2072 0 37.9435 33.2072 0 571.026 242.383 -88.6602 -46.2532 -0.886602 -0.462532 1 0.5 0 1
115 1 24.237 21.4537 0 24.237 21.4537 0 31.3402 715.251 -38.5928 -92.2529 -0.385928 -0.922529 1 0.5 0 1
116 1 30.4254 37.5601 0 30.4254 37.5601 0 179.93 -772.758 -18.407 -98.2913 -0.18407 -0.982913 1 0.5 0 1
117 1 56.9139 48.3289 0 56.9139 48.3289 0 19.7651 345.767 -25.5385 -96.6839 -0.255385 -0.966839 1 0.5 0 1
118 1 37.2376 71.7313 0 37.2376 71.7313 0 471.411 128.251 99.7674 -6.81696 0.997674 -0.0681696 1 0.5 0 1
119 1 17.7269 20.4771 0 17.7269 20.4771 0 4.60555 -190.159 -71.8342 -69.569 -0.718342 -0.69569 1 0.5 0 1
120 1 50.9353 20.0463 0 50.9353 20.0463 0 -14.4129 111.262 80.19 -59.7458 0.8019 -0.597458 1 0.5 0 1
121 1 16.5083 33.6384 0 16.5083 33.6384 0 445.634 269.462 -98.9548 -14.4201 -0.989548 -0.144201 1 0.5 0 1
122 1 66.5374 48.3374 0 66.5374 48.3374 0 5.46373 -484.473 -58.3991 -80.5158 -0.594356 -0.804202 1 0.5 0 1
123 1 38.7758 25.6602 0 38.7758 25.6602 0 -320.819 -546.452 -62.198 71.7659 -0.733996 0.679153 1 0.5 0 1
124 1 25.702 4.43001 0 25.702 4.43001 0 274.033 201.705 95.7194 28.9448 0.957194 0.289448 1 0.5 0 1
125 1 20.2668 23.5898 0 20.2668 23.5898 0 453.919 438.788 -42.6932 92.3412 -0.368494 0.92963 1 0.5 0 1
126 1 69.2692 68.1531 0 69.2692 68.1531 0 -84.388 564.442 -33.7547 9.12683 -0.993362 0.115032 1 0.5 0 1
127 1 52.791 60.3885 0 52.791 60.3885 0 -345.759 -57.5724 127.742 53.3239 0.887503 0.460801 1 0.5 0 1
128 1 5.74846 69.3833 0 5.74846 69.3833 0 643.61 438.397 -75.3454 -65.7501 -0.753454 -0.657501 1 0.5 0 1
129 1 29.426 16.6741 0 29.426 16.6741 0 -630.297 145.13 92.2318 38.6433 0.922318 0.386433 1 0.5 0 1
130 1 62.0357 9.74257 0 62.0357 9.74257 0 -0.894512 11.4303 -37.8386 -98.9509 -0.373511 -0.927626 1 0.5 0 1
131 1 35.6032 47.7066 0 35.6032 47.7066 0 -597.409 -475.229 -21.6346 88.6979 -0.506002 0.862532 1 0.5 0 1
132 1 52.4962 75.3127 0 52.4962 75.3127 0 -158.978 -554.33 -44.331 103.343 -0.577008 0.816739 1 0.5 0 1
133 1 67.9232 63.1876 0 67.9232 63.1876 0 623.243 -176.677 60.1487 79.8883 0.601487 0.798883 1 0.5 0 1
134 1 76.8653 43.5692 0 76.8653 43.5692 0 487.583 316.337 -39.601 91.8246 -0.39601 0.918246 1 0.5 0 1
135 1 74.6443 63.596 0 74.6443 63.596 0 -585.188 101.353 -189.806 38.2315 -0.822715 0.568454 1 0.5 0 1
136 1 2.83234 42.9931 0 2.83234 42.9931 0 -468.678 -277.005 1.55773 95.7148 0.227537 0.973769 1 0.5 0 1
137 1 71.767 16.9352 0 71.767 16.9352 0 -10.013 25.0962 64.4967 76.421 0.644967 0.76421 1 0.5 0 1
138 1 68.9235 22.4319 0 68.9235 22.4319 0 -114.637 -850.376 -36.7655 70.1718 -0.749737 0.661736 1 0.5 0 1
139 1 72.5518 13.7179 0 72.5518 13.7179 0 -256.313 22.4166 -83.5241 -108.976 -0.825246 -0.564774 1 0.5 0 1
140 1 25.9878 41.1396 0 25.9878 41.1396 0 67.0253 -209.521 54.0007 -60.2115 0.285363 -0.95842 1 0.5 0 1
141 1 62.5506 31.8505 0 62.5506 31.8505 0 -86.4318 515.777 -106.948 30.6101 -0.990857 0.134916 1 0.5 0 1
142 1 20.48 34.6219 0 20.48 34.6219 0 -11.0659 -91.7219 99.7392 7.21775 0.997392 0.0721775 1 0.5 0 1
143 1 18.8593 48.1898 0 18.8593 48.1898 0 -1350.93 -293.368 -18.8018 98.2166 -0.188018 0.982166 1 0.5 0 1
144 1 49.8384 24.0643 0 49.8384 24.0643 0 230.39 1352.11 98.0432 -19.686 0.980432 -0.19686 1 0.5 0 1
145 1 65.4215 48.4403 0 65.4215 48.4403 0 61.4674 -696.082 119.399 -76.5555 0.96968 0.244378 1 0.5 0 1
146 1 47.6459 23.3899 0 47.6459 23.3899 0 -18.3005 -756.471 -67.9155 -73.3995 -0.679155 -0.733995 1 0.5 0 1
147 1 67.7219 48.0484 0 67.7219 48.0484 0 568.088 -831.653 61.2048 -79.082 0.612048 -0.79082 1 0.5 0 1
148 1 76.2345 40.0863 0 76.2345 40.0863 0 -215.939 389.72 -99.5268 -9.71702 -0.995268 -0.0971702 1 0.5 0 1
149 1 50.2194 77.7387 0 50.2194 77.7387 0 -64.6684 100.752 -22.1386 104.248 -0.188264 0.982118 1 0.5 0 1
150 1 22.6087 9.39505 0 22.6087 9.39505 0 347.347 -210.506 -76.8508 -8.84801 -0.925233 0.379399 1 0.5 0 1
151 1 45.2315 9.17832 0 45.2315 9.17832 0 -149.332 568.182 53.5881 -84.4293 0.535881 -0.844293 1 0.5 0 1
152 1 12.163 72.926 0 12.163 72.926 0 -216.122 -819.67 5.69524 93.149 0.293569 0.955938 1 0.5 0 1
153 1 44.981 55.463 0 44.981 55.463 0 537.462 66.9254 39.9396 91.6778 0.399396 0.916778 1 0.5 0 1
154 1 7.69497 75.3367 0 7.69497 75.3367 0 -418.993 -157.973 -73.1916 -68.1395 -0.731916 -0.681395 1 0.5 0 1
155 1 10.2995 14.4206 0 10.2995 14.4206 0 -21.1115 -326.657 61.4473 -78.8938 0.614473 -0.788938 1 0.5 0 1
156 1 68.6826 41.5725 0 68.6826 41.5725 0 -304.83 360.751 95.1178 30.8644 0.951178 0.308644 1 0.5 0 1
157 1 18.9762 28.5294 0 18.9762 28.5294 0 50.7244 290.071 -98.3077 -18.3195 -0.983077 -0.183195 1 0.5 0 1
158 1 29.607 31.1524 0 29.607 31.1524 0 -299.886 -231.724 -107.358 -27.0635 -0.962543 -0.27113 1 0.5 0 1
159 1 65.1882 60.7017 0 65.1882 60.7017 0 264.671 -360.736 98.9029 4.19708 0.999921 -0.0125563 1 0.5 0 1
160 1 12.4862 63.7374 0 12.4862 63.7374 0 -1008.03 23.6688 -9.48896 -63.957 -0.0317188 -0.999497 1 0.5 0 1
161 1 14.253 20.2678 0 14.253 20.2678 0 -223.974 159.269 -2.51806 100.893 -0.0731668 0.99732 1 0.5 0 1
162 1 29.4608 70.9329 0 29.4608 70.9329 0 357.848 -79.0592 -99.8929 4.62703 -0.998929 0.0462703 1 0.5 0 1
163 1 35.4861 60.612 0 35.4861 60.612 0 -307.866 -1048.21 97.5624 21.945 0.975624 0.21945 1 0.5 0 1
164 1 22.4868 78.123 0 22.4868 78.123 0 -826.847 -814.289 111.024 -20.4724 0.709228 -0.704979 1 0.5 0 1
165 1 45.581 53.505 0 45.581 53.505 0 -326.43 -30.5258 54.2103 -109.577 0.355287 -0.934757 1 0.5 0 1
166 1 67.5682 15.0899 0 67.5682 15.0899 0 -349.771 700.252 -90.1616 -37.323 -0.862317 -0.50637 1 0.5 0 1
167 1 23.173 15.3374 0 23.173 15.3374 0 -694.758 147.059 56.3658 82.6008 0.563658 0.826008 1 0.5 0 1
168 1 37.1218 54.9429 0 37.1218 54.9429 0 185.143 -831.503 62.1018 -78.3796 0.621018 -0.783796 1 0.5 0 1
169 1 49.9622 47.3488 0 49.9622 47.3488 0 164.31 -776.179 -43.4922 76.1353 -0.56548 0.824762 1 0.5 0 1
170 1 65.673 39.2124 0 65.673 39.2124 0 -666.796 -380.669 20.0377 77.0053 0.175174 0.984537 1 0.5 0 1
171 1 67.0896 64.0968 0 67.0896 64.0968 0 -329.082 -400.476 69.6537 -85.5799 0.550757 -0.834665 1 0.5 0 1
172 1 62.1147 6.72719 0 62.1147 6.72719 0 -422.42 -397.794 -112.57 -78.9007 -0.595728 -0.803187 1 0.5 0 1
173 1 42.3313 58.4992 0 42.3313 58.4992 0 327.135 817.193 91.068 -49.4559 0.791596 -0.611045 1 0.5 0 1
174 1 53.2806 28.775 0 53.2806 28.775 0 -109.412 -107.918 -5.29866 -40.1828 -0.912503 -0.40907 1 0.5 0 1
175 1 11.1196 8.02352 0 11.1196 8.02352 0 -96.5157 -167.003 8.16902 -134.548 0.4429 -0.896571 1 0.5 0 1
176 1 64.2994 59.7796 0 64.2994 59.7796 0 -604.809 -377.913 2.81723 -118.463 -0.541143 -0.840931 1 0.5 0 1
177 1 54.2409 55.4645 0 54.2409 55.4645 0 -710.122 -66.0904 -22.9539 97.3299 -0.229539 0.973299 1 0.5 0 1
178 1 17.2026 73.5201 0 17.2026 73.5201 0 187.756 -248.31 -113.504 16.399 -0.991959 -0.126558 1 0.5 0 1
179 1 43.5372 0.335155 0 43.5372 0.335155 0 844.172 -699.064 -9.93111 -35.9523 -0.380092 -0.924949 1 0.5 0 1
180 1 68.7439 25.9866 0 68.7439 25.9866 0 278.424 169.361 21.1019 90.5852 0.551233 0.834352 1 0.5 0 1
181 1 62.5683 5.44834 0 62.5683 5.44834 0 716.898 569.361 12.5851 127.242 0.26465 0.964344 1 0.5 0 1
182 1 31.8881 76.3804 0 31.8881 76.3804 0 -203.842 -507.205 38.6818 100.18 0.60106 0.799204 1 0.5 0 1
183 1 28.0956 37.4906 0 28.0956 37.4906 0 475.108 -143.669 90.5518 -42.4308 0.905518 -0.424308 1 0.5 0 1
184 1 78.4398 29.9642 0 78.4398 29.9642 0 396.324 -457.232 -94.5922 32.4395 -0.945922 0.324395 1 0.5 0 1
185 1 55.7043 42.0474 0 55.7043 42.0474 0 -128.29 -194.111 1.00847 97.4937 0.120052 0.992768 1 0.5 0 1
186 1 31.772 9.99147 0 31.772 9.99147 0 -299.142 152.361 63.7904 101.79 0.485306 0.874344 1 0.5 0 1
187 1 14.3873 62.9156 0 14.3873 62.9156 0 -1226.7 -60.4716 63.2666 85.3263 0.561125 0.827731 1 0.5 0 1
188 1 62.8981 71.933 0 62.8981 71.933 0 517.858 -100.251 99.6935 -7.82396 0.996935 -0.0782396 1 0.5 0 1
189 1 7.76207 44.0393 0 7.76207 44.0393 0 -324.789 -255.638 -77.1072 -27.9014 -0.757091 -0.653309 1 0.5 0 1
190 1 41.529 62.4736 0 41.529 62.4736 0 487.792 363.578 -94.0218 34.0574 -0.940218 0.340574 1 0.5 0 1
191 1 75.7244 8.50874 0 75.7244 8.50874 0 -288.116 412.99 -54.523 -83.8287 -0.54523 -0.838287 1 0.5 0 1
192 1 44.1853 14.251 0 44.1853 14.251 0 1005.41 -326.93 71.6009 69.8091 0.716009 0.698091 1 0.5 0 1
193 1 47.138 8.52488 0 47.138 8.52488 0 -535.871 -405.55 -51.2615 106.845 -0.699139 0.714986 1 0.5 0 1
194 1 63.8371 33.5893 0 63.8371 33.5893 0 779.657 -40.3152 54.2895 141.25 -0.0622768 0.998059 1 0.5 0 1
195 1 29.0236 3.71926 0 29.0236 3.71926 0 -573.629 -660.595 -51.3183 85.8279 -0.513183 0.858279 1 0.5 0 1
196 1 70.7305 45.6926 0 70.7305 45.6926 0 -62.1454 -129.5 42.1155 -98.7302 0.0131321 -0.999914 1 0.5 0 1
197 1 10.7766 30.3107 0 10.7766 30.3107 0 205.882 124.199 -36.823 97.7032 -0.192295 0.981337 1 0.5 0 1
198 1 72.1248 41.408 0 72.1248 41.408 0 134.196 -194.169 -11.4648 -111.973 0.0858463 -0.996308 1 0.5 0 1
199 1 27.0607 4.40543 0 27.0607 4.40543 0 -62.1542 -144.607 46.7083 88.4213 0.467083 0.884213 1 0.5 0 1
200 1 1.57808 33.8665 0 1.57808 33.8665 0 -1.4164 49.1394 -10.9811 99.3952 -0.109811 0.993952 1 0.5 0 1
201 1 30.1962 7.21266 0 30.1962 7.21266 0 -253.444 -114.036 76.618 -79.4593 0.707749 -0.706464 1 0.5 0 1
202 1 3.59896 29.567 0 3.59896 29.567 0 -159.504 577.309 -81.2205 -58.3372 -0.812205 -0.583372 1 0.5 0 1
203 1 44.3956 40.9868 0 44.3956 40.9868 0 923.698 -155.539 -32.353 120.918 -0.193787 0.981044 1 0.5 0 1
204 1 8.22223 3.51939 0 8.22223 3.51939 0 -189.402 510.734 -77.0687 60.3106 -0.832126 0.554587 1 0.5 0 1
205 1 46.627 77.7896 0 46.627 77.7896 0 -1109.29 -76.6475 -49.5571 -50.7573 -0.750413 -0.66097 1 0.5 0 1
206 1 18.2121 19.1842 0 18.2121 19.1842 0 -306.285 -578.435 -66.789 -74.426 -0.66789 -0.74426 1 0.5 0 1
207 1 37.2856 35.2177 0 37.2856 35.2177 0 289.19 134.664 -12.8426 99.1719 -0.128426 0.991719 1 0.5 0 1
208 1 58.9191 53.7517 0 58.9191 53.7517 0 -661.937 -681.083 -19.4181 98.0966 -0.194181 0.980966 1 0.5 0 1
209 1 60.1155 7.93836 0 60.1155 7.93836 0 -528.323 428.632 2.56208 99.9672 0.0256208 0.999672 1 0.5 0 1
210 1 50.8254 70.3644 0 50.8254 70.3644 0 120.064 677.771 -71.8849 69.5166 -0.718849 0.695166 1 0.5 0 1
211 1 67.5607 29.6197 0 67.5607 29.6197 0 109.535 84.9955 8.28456 71.6882 -0.209823 0.977739 1 0.5 0 1
212 1 72.0513 11.0998 0 72.0513 11.0998 0 109.681 -73.3847 14.6872 -98.9155 0.146872 -0.989155 1 0.5 0 1
213 1 78.9291 63.3512 0 -0.336892 63.3512 0 -824.368 -366.288 98.8631 -15.0363 0.988631 -0.150363 1 0.5 0 1
214 1 49.3411 52.816 0 49.3411 52.816 0 347.143 910.664 -53.1732 84.6913 -0.531732 0.846913 1 0.5 0 1
215 1 3.06766 10.5071 0 3.06766 10.5071 0 65.1754 70.2045 -92.6123 -71.3316 -0.708241 -0.70597 1 0.5 0 1
216 1 40.4941 67.3277 0 40.4941 67.3277 0 132.567 -367.238 -100.34 23.2547 -0.981551 0.191199 1 0.5 0 1
217 1 55.2306 33.8334 0 55.2306 33.8334 0 466.134 -461.399 -53.0925 -113.383 -0.747661 -0.664081 1 0.5 0 1
218 1 6.85337 19.2179 0 6.85337 19.2179 0 14.4864 492.426 56.4844 87.5657 0.625551 0.780183 1 0.5 0 1
219 1 30.3008 61.1749 0 30.3008 61.1749 0 -130.889 546.308 99.5747 9.21273 0.995747 0.0921273 1 0.5 0 1
220 1 32.097 16.4077 0 32.097 16.4077 0 300.111 63.4085 85.323 52.1535 0.85323 0.521535 1 0.5 0 1
221 1 53.9306 16.6648 0 53.9306 16.6648 0 142.226 252.511 42.039 71.3567 0.643988 0.765036 1 0.5 0 1
222 1 60.7169 15.2058 0 60.7169 15.2058 0 -151.629 210.019 -99.9392 -3.48691 -0.999392 -0.0348691 1 0.5 0 1
223 1 2.33533 13.5437 0 2.33533 13.5437 0 -368.727 502.984 35.5644 93.4621 0.355644 0.934621 1 0.5 0 1
224 1 10.8123 52.2771 0 10.8123 52.2771 0 -176.981 255.531 -74.1289 44.6756 -0.522861 0.852418 1 0.5 0 1
225 1 1.43648 25.8344 0 80.7025 25.8344 0 -172.341 -1.04559 -34.6116 -83.4875 -0.294002 -0.955805 1 0.5 0 1
226 1 45.1416 48.0366 0 45.1416 48.0366 0 1201.37 113.712 63.0554 -13.0041 0.54285 -0.83983 1 0.5 0 1
227 1 40.345 3.94833 0 40.345 3.94833 0 -416.236 -302.488 48.1433 104.225 0.556259 0.831009 1 0.5 0 1
228 1 17.5924 53.3142 0 17.5924 53.3142 0 -137.93 163.635 67.8094 73.4975 0.678094 0.734975 1 0.5 0 1
229 1 39.6317 21.1876 0 39.6317 21.1876 0 -324.55 268.42 56.1984 118.856 0.460327 0.88775 1 0.5 0 1
230 1 77.3338 70.6693 0 77.3338 70.6693 0 146.594 778.803 64.9449 72.0914 0.67227 0.740306 1 0.5 0 1
231 1 10.721 54.2747 0 10.721 54.2747 0 -1543.47 762.966 92.4406 -38.141 0.924406 -0.38141 1 0.5 0 1
232 1 44.1904 20.0924 0 44.1904 20.0924 0 314.131 -189.434 -30.3141 -95.2946 -0.303141 -0.952946 1 0.5 0 1
233 1 72.0482 61.533 0 72.0482 61.533 0 872.667 218.491 -87.0767 -103 -0.426956 -0.904272 1 0.5 0 1
234 1 55.4608 18.0803 0 55.4608 18.0803 0 -378.227 -425.479 17.1332 -98.5213 0.171332 -0.985213 1 0.5 0 1
235 1 18.5857 52.0425 0 18.5857 52.0425 0 -199.584 -190.682 -32.3199 94.6331 -0.323199 0.946331 1 0.5 0 1
236 1 49.6888 63.5626 0 49.6888 63.5626 0 -413.793 387.794 121.481 29.4256 0.99809 0.0617818 1 0.5 0 1
237 1 18.1128 21.7016 0 18.1128 21.7016 0 -762.908 475.875 67.2518 56.597 0.261611 0.965173 1 0.5 0 1
238 1 47.212 76.2788 0 47.212 76.2788 0 105.31 764.246 92.0257 -39.1315 0.920257 -0.391315 1 0.5 0 1
239 1 65.7363 10.4279 0 65.7363 10.4279 0 -553.145 -439.904 75.8551 67.2614 0.739843 0.672779 1 0.5 0 1
240 1 79.0472 20.576 0 -0.218842 20.576 0 -83.8875 118.794 2.42575 85.3304 0.382732 0.923859 1 0.5 0 1
241 1 75.1963 76.1084 0 75.1963 76.1084 0 -221.999 -54.6451 -91.7835 -39.6962 -0.917835 -0.396962 1 0.5 0 1
242 1 56.6886 15.8006 0 56.6886 15.8006 0 -147.857 384.022 21.8231 -97.5897 0.218231 -0.975897 1 0.5 0 1
243 1 33.1778 57.4737 0 33.1778 57.4737 0 -903.314 -315.652 -96.1351 27.5327 -0.961351 0.275327 1 0.5 0 1
244 1 65.7267 49.4221 0 65.7267 49.4221 0 297.526 3.19447 -54.7379 100.901 -0.954111 -0.299455 1 0.5 0 1
245 1 38.7391 18.4721 0 38.7391 18.4721 0 -310.242 206.023 110.942 112.687 0.895082 0.445901 1 0.5 0 1
246 1 17.1178 44.351 0 17.1178 44.351 0 198.313 173.296 -3.73027 -87.1605 0.0746334 -0.997211 1 0.5 0 1
247 1 57.5389 10.4367 0 57.5389 10.4367 0 -119.741 -885.088 19.1198 -92.639 0.330578 -0.943779 1 0.5 0 1
248 1 24.7704 67.3909 0 24.7704 67.3909 0 -318.601 -376.445 -49.1818 87.0698 -0.491818 0.870698 1 0.5 0 1
249 1 21.2959 27.7447 0 21.2959 27.7447 0 -418.995 -17.4288 62.6106 -77.9738 0.626106 -0.779738 1 0.5 0 1
250 1 73.1454 29.5236 0 73.1454 29.5236 0 -803.547 -748.643 103.63 -0.951248 0.999525 -0.0308209 1 0.5 0 1
251 1 13.7442 74.0233 0 13.7442 74.0233 0 407.216 -508.202 51.0099 89.5618 0.496302 0.86815 1 0.5 0 1
252 1 14.3585 50.7184 0 14.3585 50.7184 0 -484.906 -77.5617 95.1025 30.9113 0.951025 0.309113 1 0.5 0 1
253 1 39.3181 29.9959 0 39.3181 29.9959 0 -759.813 114.913 -60.1777 57.2449 -0.866427 0.499303 1 0.5 0 1
254 1 54.6271 36.8604 0 54.6271 36.8604 0 71.8814 -218.316 -75.6128 82.9256 -0.469483 0.882942 1 0.5 0 1
255 1 78.8702 56.5067 0 78.8702 56.5067 0 -459.532 -263.308 -7.71841 99.7017 -0.0771841 0.997017 1 0.5 0 1
256 1 7.30002 18.2113 0 7.30002 18.2113 0 -202.497 170.993 -58.5303 62.7413 -0.645725 0.76357 1 0.5 0 1
257 1 30.5775 59.9992 0 30.5775 59.9992 0 -831.42 -483.609 43.7212 89.9358 0.437212 0.899358 1 0.5 0 1
258 1 31.7412 19.044 0 31.7412 19.044 0 -41.104 -296.76 -105.443 40.0311 -0.890427 0.455126 1 0.5 0 1
259 1 77.194 14.4605 0 77.194 14.4605 0 -530.074 544.639 71.6079 -60.1322 0.787392 -0.616453 1 0.5 0 1
260 1 70.0741 53.2541 0 70.0741 53.2541 0 497.55 -422.658 94.2678 33.3705 0.942678 0.333705 1 0.5 0 1
261 1 25.205 45.4858 0 25.205 45.4858 0 -643.529 937.907 -93.667 37.4585 -0.999994 0.00336289 1 0.5 0 1
262 1 69.763 15.2084 0 69.763 15.2084 0 -139.787 -78.8802 27.2931 -40.0047 0.349814 -0.936819 1 0.5 0 1
263 1 1.74995 14.5647 0 1.74995 14.5647 0 -51.6041 214.017 53.1076 -78.0364 0.471318 -0.881963 1 0.5 0 1
264 1 73.782 22.1478 0 73.782 22.1478 0 126.143 74.5946 56.1915 -80.8224 0.717856 -0.696191 1 0.5 0 1
265 1 36.8393 68.4232 0 36.8393 68.4232 0 -110.733 1335.1 -63.6817 -76.4082 -0.642273 -0.766476 1 0.5 0 1
266 1 26.8103 0.954199 0 26.8103 80.2202 0 221.647 200.402 54.4971 -83.8455 0.544971 -0.838455 1 0.5 0 1
267 1 19.8211 24.669 0 19.8211 24.669 0 -4.76888 10.5621 60.3009 -115.504 -0.493134 -0.869953 1 0.5 0 1
268 1 30.5138 67.1879 0 30.5138 67.1879 0 351.591 294.041 93.5024 38.8807 0.918717 0.394917 1 0.5 0 1
269 1 77.0124 23.6928 0 77.0124 23.6928 0 -74.7744 109.698 92.7115 37.4776 0.927115 0.374776 1 0.5 0 1
270 1 65.5077 11.6525 0 65.5077 11.6525 0 117.53 222.978 123.038 -39.2157 0.953914 -0.300082 1 0.5 0 1
271 1 17.3253 62.2954 0 17.3253 62.2954 0 474.288 1060.67 -40.1111 -91.6029 -0.401111 -0.916029 1 0.5 0 1
272 1 31.5515 30.316 0 31.5515 30.316 0 -566.635 -53.7153 39.241 -114.762 0.520943 -0.853591 1 0.5 0 1
273 1 35.6557 18.6183 0 35.6557 18.6183 0 -729.18 107.279 58.9183 87.4896 0.649664 0.760221 1 0.5 0 1
274 1 47.4005 24.7613 0 47.4005 24.7613 0 77.9774 561.742 -98.9377 -14.5372 -0.989377 -0.145372 1 0.5 0 1
275 1 20.9846 11.3016 0 20.9846 11.3016 0 671.647 541.718 18.8614 -98.2051 0.188614 -0.982051 1 0.5 0 1
276 1 54.9662 24.0317 0 54.9662 24.0317 0 56.5378 -27.1072 -36.9201 92.935 -0.369201 0.92935 1 0.5 0 1
277 1 15.6405 44.4453 0 15.6405 44.4453 0 208.559 379.681 -88.0462 47.4117 -0.880462 0.474117 1 0.5 0 1
278 1 12.9867 30.0551 0 12.9867 30.0551 0 798.738 34.8186 -76.3886 62.0268 -0.674736 0.738059 1 0.5 0 1
279 1 59.8165 9.44077 0 59.8165 9.44077 0 80.0046 530.62 93.5716 35.2754 0.935716 0.352754 1 0.5 0 1
280 1 54.9951 16.9098 0 54.9951 16.9098 0 -438.18 -318.702 106.557 59.0987 0.841974 0.539519 1 0.5 0 1
281 1 38.2577 34.5703 0 38.2577 34.5703 0 -354.435 -305.873 45.1709 36.5398 0.582299 0.812975 1 0.5 0 1
282 1 19.4409 38.3221 0 19.4409 38.3221 0 -296.823 88.4502 90.5576 -42.4184 0.905576 -0.424184 1 0.5 0 1
283 1 23.6634 56.7777 0 23.6634 56.7777 0 -13.5806 -251.648 -17.3797 98.4782 -0.173797 0.984782 1 0.5 0 1
284 1 29.3436 63.1825 0 29.3436 63.1825 0 1110.65 115.975 13.2904 99.1129 0.132904 0.991129 1 0.5 0 1
285 1 78.2169 47.5466 0 78.2169 47.5466 0 262.137 202.23 46.1482 -102.257 0.453752 -0.891128 1 0.5 0 1
286 1 27.0371 31.0336 0 27.0371 31.0336 0 929.887 393.393 26.0835 117.667 0.0836584 0.996494 1 0.5 0 1