ITEM: TIMESTEP
470000
ITEM: NUMBER OF ATOMS
4000
ITEM: BOX BOUNDS pp pp pp
0.0000000000000000e+00 7.9266000000000005e+01
0.0000000000000000e+00 7.9266000000000005e+01
-5.0000000000000000e-01 5.0000000000000000e-01
ITEM: ATOMS id type x y z xu yu zu vx vy fx fy mux muy mu radius omegaz mass
1 1 9.71698 65.3614 0 88.983 65.3614 0 172.889 437.392 85.9466 129.59 0.324537 -0.945873 1 0.5 0 1
2 1 60.1532 19.5437 0 60.1532 19.5437 0 591.689 137.446 -66.6831 -7.69041 -0.877473 -0.479626 1 0.5 0 1
3 1 40.1174 34.9896 0 40.1174 -44.2764 0 -331.973 316.584 -46.6853 -89.8348 0.998967 -0.045433 1 0.5 0 1
4 1 1.27083 16.6881 0 1.27083 16.6881 0 374.738 8.93728 1.21981 -43.4146 -0.920122 0.391632 1 0.5 0 1
5 1 0.504238 32.4939 0 0.504238 32.4939 0 -515.871 17.7013 -109.995 -57.2301 -0.990959 0.134168 1 0.5 0 1
6 1 67.7775 30.7526 0 -11.4885 30.7526 0 -108.346 266.738 -78.3277 -71.7492 0.970218 -0.242232 1 0.5 0 1
7 1 67.1598 51.3396 0 67.1598 51.3396 0 661.55 283.102 47.0659 62.165 -0.614082 0.789242 1 0.5 0 1
8 1 15.8893 29.7816 0 15.8893 -49.4844 0 137.697 756.568 34.9207 -87.1433 -0.792592 -0.609752 1 0.5 0 1
9 1 66.1542 28.5038 0 66.1542 28.5038 0 -72.189 -236.364 -116.375 112.458 0.206386 0.978471 1 0.5 0 1
10 1 21.0504 54.1133 0 21.0504 54.1133 0 441.245 130.388 63.3274 -62.5731 -0.863672 0.504055 1 0.5 0 1
11 1 64.7762 13.6155 0 -93.7558 13.6155 0 24.042 -368.691 -48.2942 -65.3928 0.0783425 0.996927 1 0.5 0 1
12 1 77.3965 23.7695 0 77.3965 103.035 0 -1109.14 63.4706 284.286 -151.658 -0.886155 -0.463388 1 0.5 0 1
13 1 77.0063 66.5866 0 77.0063 -12.6794 0 134.415 716.238 -13.2752 -110.539 -0.980687 0.195585 1 0.5 0 1
14 1 14.261 40.7238 0 -144.271 40.7238 0 -112.449 -555.658 -76.7499 -37.2781 -0.992984 -0.118248 1 0.5 0 1
15 1 9.15262 36.6734 0 9.15262 36.6734 0 171.895 -281.837 19.6158 95.3373 -0.465229 0.88519 1 0.5 0 1
16 1 15.8671 50.6938 0 -63.3989 -28.5722 0 484.708 -327.712 -98.4885 -32.9564 -0.757458 -0.652884 1 0.5 0 1
17 1 42.5181 39.8512 0 121.784 119.117 0 147.905 629.719 -62.6852 -40.603 0.851189 -0.524859 1 0.5 0 1
18 1 74.0635 73.0276 0 -5.20252 -6.23837 0 209.213 126.432 -24.9665 72.5513 0.99461 0.103683 1 0.5 0 1
19 1 3.76797 44.4488 0 3.76797 44.4488 0 383.988 -619.869 -44.6554 -74.7352 -0.178847 0.983877 1 0.5 0 1
20 1 24.2264 57.6032 0 24.2264 57.6032 0 203.257 121.627 46.597 -44.1023 0.764354 -0.644797 1 0.5 0 1
21 1 1.38829 29.1715 0 1.38829 29.1715 0 -540.231 -24.5375 105.564 -10.6321 -0.453821 0.891093 1 0.5 0 1
22 1 78.812 22.4453 0 78.812 22.4453 0 -137.472 1018.59 194.936 -63.7264 -0.715119 -0.699002 1 0.5 0 1
23 1 41.6638 47.1913 0 120.93 47.1913 0 594.178 -480.483 -13.85 -73.9166 0.0888832 -0.996042 1 0.5 0 1
24 1 67.2479 58.4492 0 67.2479 -20.8168 0 -363.468 -369.062 304.344 34.6391 0.206521 -0.978442 1 0.5 0 1
25 1 46.3396 31.0134 0 -32.9264 -48.2526 0 266.065 -800.079 -84.851 124.001 0.444659 -0.8957 1 0.5 0 1
26 1 53.3925 64.1225 0 53.3925 -94.4095 0 390.717 80.6865 81.2397 -48.8363 -0.65536 0.755317 1 0.5 0 1
27 1 72.1906 20.2965 0 -7.07544 99.5625 0 -282.989 118.348 91.7349 45.0239 -0.36474 -0.93111 1 0.5 0 1
28 1 0.561822 78.4104 0 0.561822 78.4104 0 -384.618 -453.571 -43.432 90.0759 -0.43432 0.900759 1 0.5 0 1
29 1 73.7992 39.7546 0 -5.46677 39.7546 0 265.957 -496.425 206.423 -44.6012 -0.872361 -0.488862 1 0.5 0 1
30 1 2.54348 12.2877 0 81.8095 91.5537 0 468.781 -200.537 47.1696 -35.6655 0.263634 0.964623 1 0.5 0 1
31 1 72.2006 27.5285 0 -7.06544 27.5285 0 654.101 -310.489 -118.348 -47.2899 -0.332107 0.943242 1 0.5 0 1
32 1 1.65249 17.665 0 1.65249 17.665 0 -67.8869 -523.572 -196.526 68.9393 0.677342 -0.735669 1 0.5 0 1
33 1 65.8913 59.9063 0 65.8913 -19.3597 0 -39.9487 140.223 -45.7389 -173.807 0.672463 -0.740131 1 0.5 0 1
34 1 7.58656 49.066 0 86.8526 49.066 0 -839.069 335.071 65.537 -12.3632 0.49606 0.868288 1 0.5 0 1
35 1 40.8767 39.991 0 -38.3893 39.991 0 -539.561 -607.666 6.51555 26.1069 -0.805701 0.592322 1 0.5 0 1
36 1 60.5794 60.2853 0 60.5794 -18.9807 0 -364.001 357.37 -265.378 103.209 0.239202 0.97097 1 0.5 0 1
37 1 69.4733 43.9658 0 69.4733 43.9658 0 -94.875 325.39 104.118 -68.5239 -0.650259 0.759713 1 0.5 0 1
38 1 0.500136 13.5288 0 159.032 92.7948 0 331.186 -363.407 97.3568 -0.607933 0.776136 -0.630565 1 0.5 0 1
39 1 7.90891 25.5827 0 87.1749 -53.6833 0 300.201 -338.42 8.99709 53.6927 0.997173 0.0751443 1 0.5 0 1
40 1 56.1697 18.6083 0 -23.0963 97.8743 0 -817.88 297.608 156.155 109.093 0.623011 0.782213 1 0.5 0 1
41 1 69.6492 53.7904 0 69.6492 53.7904 0 603.118 367.515 -99.2893 42.8591 0.999861 0.0166533 1 0.5 0 1
42 1 75.8184 59.8876 0 -3.44758 59.8876 0 272.749 327.396 -14.1895 101.636 0.224456 -0.974484 1 0.5 0 1
43 1 77.4592 16.0365 0 -81.0728 95.3025 0 926.147 122.262 -4.36337 21.6164 -0.950642 -0.310291 1 0.5 0 1
44 1 63.3511 21.4219 0 63.3511 100.688 0 1361.34 156.157 29.2341 -59.3895 0.0148372 0.99989 1 0.5 0 1
45 1 20.534 62.8758 0 20.534 -95.6562 0 419.721 -256.01 7.99122 -67.6018 0.0485697 -0.99882 1 0.5 0 1
46 1 4.84368 45.7728 0 4.84368 45.7728 0 145.763 -221.823 -135.047 93.0041 -0.751181 -0.660096 1 0.5 0 1
47 1 59.4391 62.71 0 59.4391 -16.556 0 -213.638 141.472 -21.5736 -96.51 -0.917308 0.398178 1 0.5 0 1
48 1 13.2795 46.828 0 13.2795 46.828 0 127.172 -622.952 -81.6224 -1.80682 0.850383 -0.526165 1 0.5 0 1
49 1 41.535 56.4859 0 41.535 56.4859 0 -437.377 81.5232 -52.1716 -123.297 0.706031 0.708181 1 0.5 0 1
50 1 56.6683 16.7481 0 -22.5977 16.7481 0 569.417 467.879 -27.1042 -12.3228 0.998926 -0.0463343 1 0.5 0 1
51 1 43.1314 60.5183 0 -115.401 -18.7477 0 -355.305 104.121 41.6329 41.757 0.642205 -0.766533 1 0.5 0 1
52 1 1.76552 33.702 0 81.0315 33.702 0 -276.061 46.8156 -29.846 -155.595 0.838865 -0.54434 1 0.5 0 1
53 1 14.7922 56.8489 0 14.7922 136.115 0 -454.034 -222.31 48.4837 9.41929 0.146751 -0.989173 1 0.5 0 1
54 1 51.8499 31.6748 0 51.8499 31.6748 0 -398.261 -41.8904 182.412 -129.258 -0.276977 0.960877 1 0.5 0 1
55 1 15.4403 42.4453 0 94.7063 121.711 0 344.29 -192.063 -27.1859 -150.291 0.134148 -0.990961 1 0.5 0 1
56 1 39.5485 41.375 0 39.5485 41.375 0 4.85272 -124.519 -13.4793 123.568 0.206513 0.978444 1 0.5 0 1
57 1 3.32131 8.33306 0 3.32131 87.5991 0 333.665 -462.196 -87.7741 -30.9558 -0.287219 -0.957865 1 0.5 0 1
58 1 65.4495 29.2008 0 -13.8165 29.2008 0 -636.772 32.107 91.8632 -161.946 -0.941149 -0.337993 1 0.5 0 1
59 1 51.3603 36.0068 0 51.3603 36.0068 0 570.091 -304.291 -322.564 62.6608 0.649261 -0.760566 1 0.5 0 1
60 1 55.8974 42.7179 0 55.8974 42.7179 0 -58.4222 -53.366 161.763 34.0003 -0.099237 -0.995064 1 0.5 0 1
61 1 58.5476 46.1612 0 58.5476 46.1612 0 -368.085 -261.802 89.1572 117.301 -0.100548 -0.994932 1 0.5 0 1
62 1 56.6276 12.5391 0 135.894 12.5391 0 653.308 59.2744 40.2277 -91.5518 0.402277 -0.915518 1 0.5 0 1
63 1 15.7316 63.3497 0 -63.5344 -15.9163 0 320.457 172.03 65.0009 -0.791855 0.675798 0.737087 1 0.5 0 1
64 1 18.2889 32.6213 0 97.5549 111.887 0 38.807 561.87 -25.5133 -16.1496 -0.99621 0.0869825 1 0.5 0 1
65 1 42.4616 33.6749 0 200.994 112.941 0 -822.932 -1003.44 -61.7386 258.291 -0.385994 0.922501 1 0.5 0 1
66 1 14.4524 45.178 0 93.7184 124.444 0 -550.934 -174.368 142.37 -82.5041 0.387794 -0.921746 1 0.5 0 1
67 1 53.7442 44.8901 0 53.7442 44.8901 0 -593.273 -275.23 -59.5029 38.9054 -0.654789 -0.755812 1 0.5 0 1
68 1 13.277 40.9196 0 13.277 40.9196 0 -243.104 -380.662 -1.09973 -0.501376 0.502794 -0.864406 1 0.5 0 1
69 1 54.877 22.3513 0 54.877 22.3513 0 894.944 -96.197 -283.548 -63.4027 0.65703 0.753864 1 0.5 0 1
70 1 47.8796 39.5915 0 47.8796 118.858 0 292.528 -584.26 227.436 -98.6557 -0.282099 -0.959385 1 0.5 0 1
71 1 57.6917 16.9669 0 136.958 16.9669 0 472.647 -285.111 -34.4163 4.81026 0.578474 0.815701 1 0.5 0 1
72 1 8.68395 60.6859 0 8.68395 60.6859 0 509.77 -257.214 -47.662 219.314 0.163313 -0.986574 1 0.5 0 1
73 1 3.69896 14.2911 0 3.69896 14.2911 0 395.621 13.2773 2.22534 39.2389 0.71224 -0.701936 1 0.5 0 1
74 1 55.516 19.4709 0 55.516 98.7369 0 -437.12 282.957 126.319 -117.909 0.914421 -0.404765 1 0.5 0 1
75 1 75.5315 39.3083 0 -3.73447 39.3083 0 -304.256 1132.15 99.2639 -8.53648 -0.131922 -0.99126 1 0.5 0 1
76 1 17.5951 35.4491 0 -61.6709 35.4491 0 8.22703 357.362 5.68596 -34.1892 -0.713504 0.700651 1 0.5 0 1
77 1 77.0525 35.2976 0 -2.21348 35.2976 0 325.732 40.2647 48.3071 52.3463 0.669939 -0.742416 1 0.5 0 1
78 1 58.4833 71.7806 0 58.4833 71.7806 0 198.705 5.3325 -12.6018 -36.4796 -0.125822 -0.992053 1 0.5 0 1
79 1 45.1906 56.2405 0 -34.0754 56.2405 0 324.734 159.04 -9.70689 103.655 0.824817 0.565399 1 0.5 0 1
80 1 77.4761 27.3609 0 -1.7899 -51.9051 0 -79.4799 -49.7012 40.8593 -0.377329 -0.13674 -0.990607 1 0.5 0 1
81 1 47.0924 36.6493 0 126.358 36.6493 0 -303.806 162.391 -87.4058 -215.337 0.893476 0.44911 1 0.5 0 1
82 1 0.875681 39.7941 0 0.875681 39.7941 0 -646.231 -274.687 204.779 86.0725 0.679851 0.73335 1 0.5 0 1
83 1 42.3185 42.6489 0 121.585 121.915 0 -223.8 31.856 -35.7376 68.4722 -0.800475 0.599366 1 0.5 0 1
84 1 77.0362 45.2424 0 -2.22975 45.2424 0 362.796 -858.025 125.785 -73.5857 -0.179542 0.98375 1 0.5 0 1
85 1 52.8415 67.8321 0 -26.4245 -11.4339 0 513.616 518.179 -60.4286 -36.6972 0.648656 -0.761082 1 0.5 0 1
86 1 9.78949 42.2171 0 9.78949 42.2171 0 -20.6311 -564.107 274.176 -35.8082 -0.4291 -0.903257 1 0.5 0 1
87 1 8.67369 43.8335 0 8.67369 43.8335 0 -150.648 -519.076 -142.592 -6.1218 0.972855 0.231417 1 0.5 0 1
88 1 18.5769 37.2184 0 18.5769 37.2184 0 412.392 -45.5542 76.9064 17.7375 0.14894 0.988846 1 0.5 0 1
89 1 22.6184 50.9262 0 22.6184 -28.3398 0 -215.391 -635.713 -116.238 197.432 -0.931718 -0.363181 1 0.5 0 1
90 1 4.21266 39.0855 0 4.21266 39.0855 0 -741.745 46.5714 -24.0034 -174.329 -0.7857 0.618608 1 0.5 0 1
91 1 21.034 57.622 0 21.034 -21.644 0 -706.359 1124.69 -104.294 49.8522 0.970121 0.242623 1 0.5 0 1
92 1 6.94828 58.7984 0 6.94828 58.7984 0 327.467 380.721 -10.1622 -97.1203 0.946521 0.322643 1 0.5 0 1
93 1 2.03678 48.5756 0 2.03678 48.5756 0 -375.708 487.175 38.2899 -23.7946 -0.965812 0.259245 1 0.5 0 1
94 1 69.6838 37.6527 0 69.6838 37.6527 0 255.898 -379.831 119.375 26.8384 0.72813 -0.685439 1 0.5 0 1
95 1 66.8911 50.3829 0 66.8911 50.3829 0 95.6195 -113.733 -166.069 63.9914 0.30664 0.951826 1 0.5 0 1
96 1 53.5455 43.9216 0 53.5455 43.9216 0 36.4066 1025.61 -194.015 -118.738 0.657575 -0.753389 1 0.5 0 1
97 1 56.5187 70.4034 0 56.5187 -88.1286 0 -120.515 121.026 -87.8069 11.7405 -0.665771 -0.746156 1 0.5 0 1
98 1 17.8441 51.0326 0 17.8441 51.0326 0 952.978 -38.461 -207.577 -5.05406 -0.829194 0.558961 1 0.5 0 1
99 1 44.8068 41.5611 0 44.8068 -37.7049 0 325.635 267.313 -187.276 -89.3592 0.997409 0.0719382 1 0.5 0 1
100 1 72.4134 44.7002 0 72.4134 44.7002 0 -159.595 525.162 219.015 32.028 0.799429 -0.600761 1 0.5 0 1
101 1 49.7616 50.2406 0 49.7616 -29.0254 0 301.425 386.694 -49.743 -165.534 0.997922 -0.0644263 1 0.5 0 1
102 1 78.4371 43.8498 0 -0.828898 43.8498 0 -121.045 -351.642 -18.7189 -47.9962 -0.857995 -0.513659 1 0.5 0 1
103 1 25.2963 53.5109 0 -133.236 132.777 0 -319.723 -106.754 -62.6581 143.095 -0.567687 -0.823244 1 0.5 0 1
104 1 52.9814 45.5971 0 52.9814 124.863 0 -584.539 346.178 129.263 -26.065 0.581816 0.81332 1 0.5 0 1
105 1 40.4585 35.9247 0 40.4585 35.9247 0 408.554 316.019 -106.229 51.0414 0.867046 -0.498229 1 0.5 0 1
106 1 17.5758 37.5083 0 17.5758 -41.7577 0 276.813 29.8941 -40.2313 61.9223 -0.998314 -0.0580458 1 0.5 0 1
107 1 61.0719 38.6283 0 61.0719 38.6283 0 181.579 321.304 81.2317 -35.5774 0.540857 -0.841115 1 0.5 0 1
108 1 78.6422 37.5043 0 -0.623826 116.77 0 255.152 -670.019 -81.4926 16.9058 0.534378 -0.845246 1 0.5 0 1
109 1 38.9478 40.5226 0 -40.3182 119.789 0 -638.273 -912.532 -68.3659 15.6955 0.992647 -0.121044 1 0.5 0 1
110 1 49.5143 32.7676 0 49.5143 32.7676 0 -157.4 -933.161 77.6691 -7.0974 -0.125734 0.992064 1 0.5 0 1
111 1 72.4864 14.9864 0 72.4864 94.2524 0 236.297 549.966 168.009 -15.9985 -0.74905 0.662514 1 0.5 0 1
112 1 12.3167 51.2675 0 12.3167 51.2675 0 -263.958 -754.406 17.8985 377.944 -0.533922 0.845534 1 0.5 0 1
113 1 10.8448 22.211 0 -68.4212 101.477 0 -144.074 -281.543 -37.2327 -39.5521 -0.67558 -0.737286 1 0.5 0 1
114 1 54.261 56.8604 0 54.261 56.8604 0 -299.727 -279.474 161.728 -21.6279 0.99909 0.0426502 1 0.5 0 1
115 1 42.659 47.488 0 42.659 -31.778 0 -612.415 85.0209 -54.9777 34.1243 0.995505 0.0947061 1 0.5 0 1
116 1 58.5495 69.7725 0 58.5495 -88.7595 0 -129.695 356.264 -31.2648 -52.1963 -0.3485 -0.937309 1 0.5 0 1
117 1 65.6609 68.9735 0 65.6609 -10.2925 0 -27.2119 -192.577 166.383 141.572 -0.136322 0.990665 1 0.5 0 1
118 1 54.2541 43.2019 0 54.2541 43.2019 0 -304.384 -71.6459 5.95234 -38.0788 0.801966 -0.597369 1 0.5 0 1
119 1 48.4108 62.8017 0 206.943 -16.4643 0 87.7295 381.646 97.8058 117.284 0.998673 -0.0515036 1 0.5 0 1
120 1 45.2866 53.5822 0 124.553 -25.6838 0 616.401 -2.51318 -44.1458 257.619 -0.982562 -0.185938 1 0.5 0 1
121 1 59.8867 71.038 0 -98.6453 -8.22802 0 -223.639 343.797 -98.6309 -46.7514 0.501042 -0.865423 1 0.5 0 1
122 1 41.1736 19.9407 0 41.1736 99.2067 0 -677.337 231.699 -13.7586 -99.049 -0.137586 -0.99049 1 0.5 0 1
123 1 72.6181 32.2006 0 -6.64791 32.2006 0 97.2247 -519.888 -149.149 106.039 0.380353 0.924841 1 0.5 0 1
124 1 19.4216 27.4533 0 -59.8444 -51.8127 0 1020.29 -721.546 0.352796 -99.9994 0.00352796 -0.999994 1 0.5 0 1
125 1 63.7714 29.6491 0 63.7714 29.6491 0 -622.123 966.026 23.1295 -49.076 -0.999711 0.0240559 1 0.5 0 1
126 1 7.86449 36.5667 0 87.1305 115.833 0 45.3232 710.205 -32.591 79.8802 0.822353 0.568977 1 0.5 0 1
127 1 56.4476 32.0773 0 56.4476 111.343 0 713.431 -397.907 -201.285 230.168 0.795649 0.605758 1 0.5 0 1
128 1 0.626118 26.2775 0 -78.6399 26.2775 0 -187.158 -816.948 14.3834 191.232 -0.838131 -0.545468 1 0.5 0 1
129 1 68.9135 58.0783 0 68.9135 -21.1877 0 140.077 -327.252 104.711 23.1566 -0.550994 0.834509 1 0.5 0 1
130 1 74.6256 56.0556 0 74.6256 -23.2104 0 323.668 -487.71 -235.308 130.559 -0.722871 0.690983 1 0.5 0 1
131 1 2.07075 69.8001 0 2.07075 69.8001 0 -417.19 472.879 -13.9605 -40.5134 -0.239303 -0.970945 1 0.5 0 1
132 1 58.6991 33.5855 0 -20.5669 112.852 0 367.013 595.989 58.3951 19.8721 0.942499 -0.33421 1 0.5 0 1
133 1 15.7438 52.5073 0 15.7438 131.773 0 -88.7638 435.482 -109.374 16.6831 -0.452514 -0.891757 1 0.5 0 1
134 1 10.7932 39.6751 0 10.7932 39.6751 0 352.044 -668.296 178.377 -76.4286 0.126971 -0.991906 1 0.5 0 1
135 1 22.3255 13.6554 0 22.3255 172.187 0 501.386 43.2477 35.4976 93.4875 0.354976 0.934875 1 0.5 0 1
136 1 35.3469 42.8947 0 114.613 201.427 0 46.6497 516.598 24 97.0773 0.24 0.970773 1 0.5 0 1
137 1 39.6335 46.627 0 118.899 46.627 0 205.755 -157.41 78.3797 88.5921 0.971618 0.236556 1 0.5 0 1
138 1 49.4959 55.6824 0 -29.7701 -23.5836 0 439.253 594.613 86.4939 109.179 0.458736 0.888572 1 0.5 0 1
139 1 44.7132 45.3077 0 44.7132 -33.9583 0 -1117.27 203.481 157.579 -74.7166 -0.816435 -0.577437 1 0.5 0 1
140 1 3.2172 13.1318 0 3.2172 13.1318 0 -462.615 1060.35 -5.04081 -26.9897 -0.869616 -0.493728 1 0.5 0 1
141 1 13.0052 59.2969 0 13.0052 59.2969 0 538.404 -29.0743 -144.07 -67.4661 0.857995 -0.513658 1 0.5 0 1
142 1 21.4026 44.3825 0 -57.8634 123.649 0 -353.734 -477.712 -94.1394 -75.5801 -0.635488 0.77211 1 0.5 0 1
143 1 9.36799 37.6583 0 9.36799 116.924 0 -289.958 -747.51 -16.2682 44.9034 -0.134389 0.990929 1 0.5 0 1
144 1 45.1826 78.9337 0 45.1826 -0.332316 0 170.055 328.529 100.661 -29.3921 0.926003 -0.377516 1 0.5 0 1
145 1 17.9234 65.027 0 97.1894 65.027 0 174.425 510.94 -21.8542 -170.81 -0.0107272 -0.999942 1 0.5 0 1
146 1 61.7153 64.1901 0 61.7153 -15.0759 0 252.603 931.341 -82.6724 -129.712 0.971379 -0.237534 1 0.5 0 1
147 1 2.3268 67.148 0 81.5928 -12.118 0 -79.507 480.503 94.338 -63.6504 -0.711442 0.702745 1 0.5 0 1
148 1 36.1226 77.0515 0 115.389 77.0515 0 -32.3628 -644.546 -79.6651 60.444 -0.796651 0.60444 1 0.5 0 1
149 1 70.0054 32.3232 0 70.0054 111.589 0 -305.679 -420.935 93.4415 -26.6348 -0.367455 0.930041 1 0.5 0 1
150 1 66.0937 37.4707 0 -13.1723 37.4707 0 -188.84 415.594 293.635 -28.5962 0.972167 -0.234289 1 0.5 0 1
151 1 5.48102 57.761 0 84.747 -21.505 0 -0.181176 -1307.7 84.8343 -41.822 -0.892873 -0.450309 1 0.5 0 1
152 1 65.1214 67.0089 0 65.1214 67.0089 0 -743.14 489.679 105.315 47.7888 0.00212238 -0.999998 1 0.5 0 1
153 1 77.491 59.2041 0 77.491 59.2041 0 827.56 -1111.51 -15.8796 42.2484 0.77525 -0.631654 1 0.5 0 1
154 1 5.35208 53.2449 0 5.35208 53.2449 0 -173.233 -270.577 5.0978 -145.586 -0.770429 0.637526 1 0.5 0 1
155 1 70.0134 70.6383 0 -88.5186 -8.62767 0 447.917 -104.122 -58.038 -79.5149 -0.655305 0.755364 1 0.5 0 1
156 1 74.4082 48.869 0 74.4082 48.869 0 564.453 46.4859 -59.9977 -65.2203 -0.935269 -0.353937 1 0.5 0 1
157 1 3.69817 30.6704 0 3.69817 30.6704 0 -299.09 463.795 -61.489 -161.322 0.949269 -0.314465 1 0.5 0 1
158 1 66.8131 40.4222 0 -12.4529 40.4222 0 -559.427 -101.803 -73.8729 303.273 0.241205 0.970474 1 0.5 0 1
159 1 4.32476 17.4573 0 4.32476 96.7233 0 -77.359 -706.394 -13.4089 83.8467 -0.343759 0.939058 1 0.5 0 1
160 1 61.8961 13.8232 0 61.8961 13.8232 0 178.002 526.246 -13.8801 24.7388 0.983436 -0.181253 1 0.5 0 1
161 1 5.41817 13.915 0 5.41817 -65.351 0 339.373 26.9613 -171.359 -21.1552 -0.84525 0.534371 1 0.5 0 1
162 1 8.30846 55.2448 0 8.30846 55.2448 0 -128.917 -298.515 -75.5649 86.481 0.214763 -0.976666 1 0.5 0 1
163 1 63.4938 51.1896 0 63.4938 51.1896 0 845.239 317.376 63.0718 -64.9952 0.843213 -0.53758 1 0.5 0 1
164 1 59.3788 65.3544 0 59.3788 -13.9116 0 -117.853 738.235 -81.942 -56.7473 0.951941 -0.306281 1 0.5 0 1
165 1 52.7972 18.746 0 52.7972 98.012 0 -587.614 39.3508 95.8054 27.7285 0.935899 -0.352268 1 0.5 0 1
166 1 10.2308 46.5354 0 10.2308 46.5354 0 -188.805 192.721 -27.6147 79.9344 0.300483 0.953787 1 0.5 0 1
167 1 63.1086 30.3405 0 63.1086 30.3405 0 149.206 -718.464 -195.664 32.8046 -0.239374 -0.970928 1 0.5 0 1
168 1 15.918 65.5656 0 -63.348 65.5656 0 260.059 854.382 102.513 -123.68 0.995705 0.0925869 1 0.5 0 1
169 1 23.8508 54.9231 0 -55.4152 134.189 0 -256.458 112.903 -64.4355 33.6931 -0.749356 -0.662168 1 0.5 0 1
170 1 47.0453 0.595654 0 126.311 159.128 0 41.3398 545.501 -0.0845401 55.6334 0.28132 0.959614 1 0.5 0 1
171 1 62.3367 69.943 0 141.603 -9.32299 0 502.168 -138.43 13.9268 -59.3904 0.826359 0.563144 1 0.5 0 1
172 1 11.3657 60.0906 0 11.3657 -19.1754 0 483.989 263.793 47.4526 -122.513 0.986702 -0.162538 1 0.5 0 1
173 1 53.4693 19.5556 0 53.4693 -59.7104 0 170.101 -285.714 30.0657 28.361 0.829626 0.558319 1 0.5 0 1
174 1 11.5572 53.872 0 11.5572 53.872 0 28.0172 182.31 43.8143 51.156 0.103724 0.994606 1 0.5 0 1
175 1 59.263 72.8373 0 -20.003 -6.42875 0 209.141 370.776 35.148 29.5913 0.945478 0.325686 1 0.5 0 1
176 1 12.7684 52.2268 0 12.7684 52.2268 0 -510.921 249.111 88.6407 -140.484 0.971014 0.239022 1 0.5 0 1
177 1 6.68052 67.0959 0 6.68052 67.0959 0 -237.423 -3.56415 21.3042 60.9195 0.563369 -0.826205 1 0.5 0 1
178 1 55.8716 30.1147 0 -23.3944 109.381 0 143.028 48.4892 -82.0821 143.861 -0.978318 -0.207108 1 0.5 0 1
179 1 6.42073 59.8555 0 6.42073 -19.4105 0 -156.787 258.011 -142.535 -62.5629 0.670422 0.74198 1 0.5 0 1
180 1 73.6289 42.3368 0 73.6289 42.3368 0 -99.1743 -103.669 -138.874 45.7315 0.516491 -0.856293 1 0.5 0 1
181 1 15.3326 14.4701 0 94.5986 14.4701 0 335.99 -928.819 99.9984 0.566007 0.999984 0.00566007 1 0.5 0 1
182 1 5.12347 69.5785 0 -74.1425 69.5785 0 631.439 -599.227 -86.3199 -98.1229 -0.705132 -0.709076 1 0.5 0 1
183 1 59.3018 59.071 0 59.3018 -20.195 0 13.0391 179.169 -78.7621 -162.205 -0.500719 -0.86561 1 0.5 0 1
184 1 63.2735 43.8976 0 63.2735 43.8976 0 66.7803 -7.04367 5.23744 -33.8894 -0.237302 -0.971436 1 0.5 0 1
185 1 56.907 17.795 0 -22.359 17.795 0 -264.17 -54.6262 -48.3738 -18.5999 0.652269 0.757987 1 0.5 0 1
186 1 20.4109 44.1322 0 -58.8551 123.398 0 -12.8755 672.089 -177.71 -71.3174 -0.867468 0.497493 1 0.5 0 1
187 1 54.9162 36.2098 0 -24.3498 115.476 0 551.117 -26.7925 -73.4335 -309.155 0.476625 0.879107 1 0.5 0 1
188 1 63.6865 15.9794 0 142.953 95.2454 0 -92.1976 327.118 -9.2491 -85.7747 0.533336 0.845904 1 0.5 0 1
189 1 21.0378 27.0651 0 21.0378 106.331 0 -276.775 149.307 69.1751 72.2136 0.691751 0.722136 1 0.5 0 1
190 1 22.3174 52.6176 0 -56.9486 52.6176 0 238.034 -401.035 74.3101 289.481 0.336762 -0.94159 1 0.5 0 1
191 1 5.83075 74.378 0 164.363 -4.88796 0 -684.314 -131.879 72.4671 -37.5614 0.719541 -0.69445 1 0.5 0 1
192 1 58.3867 38.8054 0 58.3867 38.8054 0 95.0461 1187.82 -47.9198 74.0955 -0.599854 -0.80011 1 0.5 0 1
193 1 75.9605 13.8778 0 -3.30553 93.1438 0 -251.447 379.117 -68.9807 -44.6314 0.305477 0.952199 1 0.5 0 1
194 1 8.84786 16.5804 0 8.84786 -62.6856 0 -443.61 -505.639 41.7806 -137.338 -0.197295 -0.980344 1 0.5 0 1
195 1 52.8311 31.9689 0 52.8311 31.9689 0 -223.772 -355.104 -14.8567 72.7455 0.750303 0.661094 1 0.5 0 1
196 1 58.5181 42.5164 0 58.5181 42.5164 0 -460.505 298.662 -112.519 -26.1191 0.68355 0.729904 1 0.5 0 1
197 1 72.6946 61.7804 0 -6.57138 61.7804 0 30.2055 -74.8211 -140.239 91.2076 0.844334 -0.535817 1 0.5 0 1
198 1 73.6601 45.9427 0 73.6601 45.9427 0 220.047 -370.213 -16.1336 74.5998 -0.621274 0.783593 1 0.5 0 1
199 1 66.6041 71.9491 0 -12.6619 -7.31695 0 -39.4611 226.059 93.956 -35.8046 -0.0546625 -0.998505 1 0.5 0 1
200 1 0.603001 17.4496 0 79.869 96.7156 0 -368.747 639.078 112.389 14.8477 -0.221297 0.975206 1 0.5 0 1
201 1 66.5973 10.6424 0 -12.6687 89.9084 0 371.633 441.187 5.82912 -28.5676 0.675318 0.737527 1 0.5 0 1
202 1 57.2293 61.2531 0 -22.0367 -18.0129 0 320.723 232.686 -108.691 68.5214 0.770866 0.636997 1 0.5 0 1
203 1 16.8383 41.4433 0 -62.4277 120.709 0 -182.054 153.647 125.751 -68.1317 -0.74131 -0.671162 1 0.5 0 1
204 1 66.2163 64.5555 0 66.2163 -14.7105 0 -36.1679 90.8249 -159.298 8.72923 0.32297 -0.946409 1 0.5 0 1
205 1 46.767 23.6403 0 46.767 102.906 0 -774.309 -1086.17 -118.766 42.7 -0.424295 0.905524 1 0.5 0 1
206 1 6.64212 65.3829 0 6.64212 -13.8831 0 -500.063 99.2039 40.5626 -48.1606 -0.760537 0.649295 1 0.5 0 1
207 1 61.0374 64.8861 0 61.0374 64.8861 0 -817.01 464.835 162.574 94.2101 0.958016 -0.286715 1 0.5 0 1
208 1 8.1563 33.93 0 8.1563 33.93 0 -319.832 637.85 73.7214 10.8984 0.491178 0.871059 1 0.5 0 1
209 1 51.9738 28.9058 0 51.9738 108.172 0 300.471 -282.428 67.7499 280.27 0.626213 -0.779652 1 0.5 0 1
210 1 67.5927 63.1104 0 -11.6733 63.1104 0 377.189 -664.426 -85.7734 8.96166 0.769448 0.638709 1 0.5 0 1
211 1 60.7082 44.0129 0 60.7082 44.0129 0 507.752 440.224 -247.319 -137.946 0.519908 -0.854222 1 0.5 0 1
212 1 21.5329 48.1383 0 180.065 48.1383 0 -198.411 -198.902 -113.524 25.911 0.527716 0.849421 1 0.5 0 1
213 1 70.2618 66.6097 0 70.2618 66.6097 0 75.7374 451.305 39.4872 85.4857 0.319212 -0.947683 1 0.5 0 1
214 1 42.2344 28.8375 0 42.2344 28.8375 0 -327.826 -501.051 45.329 67.9554 0.988727 -0.149728 1 0.5 0 1
215 1 55.8087 62.735 0 55.8087 -16.531 0 23.7917 1457.86 -107.411 -142.789 0.160392 0.987053 1 0.5 0 1
216 1 16.3038 47.2587 0 16.3038 126.525 0 334.835 -172.637 -144.514 262.146 0.823174 0.56779 1 0.5 0 1
217 1 44.7762 68.7522 0 203.308 68.7522 0 561.451 61.4166 99.0655 -13.6391 0.990655 -0.136391 1 0.5 0 1
218 1 46.6984 52.174 0 46.6984 52.174 0 314.314 -268.738 23.4973 131.622 -0.99193 -0.126789 1 0.5 0 1
219 1 53.213 46.5443 0 53.213 46.5443 0 -271.999 -955.357 72.5168 185.011 -0.715113 -0.699009 1 0.5 0 1
220 1 64.6975 68.718 0 64.6975 -89.814 0 -745.689 -375.91 165.085 -62.0856 0.400758 -0.916184 1 0.5 0 1
221 1 44.184 58.7451 0 -35.082 138.011 0 -878.121 515.226 13.726 94.4496 -0.500818 -0.865552 1 0.5 0 1
222 1 42.7369 30.8927 0 42.7369 30.8927 0 690.002 -497.691 -61.3231 164.125 0.90213 -0.431464 1 0.5 0 1
223 1 71.6216 38.2205 0 -7.64439 38.2205 0 144.051 573.701 -47.2786 -173.039 0.907806 -0.419389 1 0.5 0 1
224 1 77.332 60.864 0 -1.93402 60.864 0 650.528 841.637 67.4708 112.204 -0.0308103 -0.999525 1 0.5 0 1
225 1 9.94559 20.3322 0 89.2116 -58.9338 0 210.623 32.9247 -60.549 -55.736 -0.999991 -0.00426703 1 0.5 0 1
226 1 20.4287 34.8073 0 -58.8373 -44.4587 0 269.752 -319.341 -50.218 -92.3167 -0.364318 -0.931274 1 0.5 0 1
227 1 1.33978 38.0805 0 80.6058 38.0805 0 815.122 -99.7745 -121.424 -17.2238 0.023697 -0.999719 1 0.5 0 1
228 1 18.5194 62.427 0 -60.7466 -16.839 0 -414.102 631.017 -70.377 -5.76887 -0.602357 -0.798227 1 0.5 0 1
229 1 51.3568 42.3938 0 51.3568 42.3938 0 881.767 -421.896 20.7462 181.52 0.188135 -0.982143 1 0.5 0 1
230 1 51.7609 40.731 0 51.7609 119.997 0 1179.81 438.332 39.7617 -9.63077 -0.971661 0.236379 1 0.5 0 1
231 1 3.09846 25.2273 0 3.09846 104.493 0 346.118 102.112 -68.9418 -120.625 -0.316122 0.948718 1 0.5 0 1
232 1 46.8031 29.3517 0 46.8031 -49.9143 0 80.1394 481.911 142.754 3.63134 -0.202328 0.979318 1 0.5 0 1
233 1 9.1026 48.2596 0 9.1026 48.2596 0 -454.957 -771.051 124.16 61.925 0.839413 0.543494 1 0.5 0 1
234 1 66.4386 11.7467 0 66.4386 11.7467 0 -301.913 -394.563 -22.3586 8.24491 -0.991017 -0.133738 1 0.5 0 1
235 1 26.8319 54.1986 0 26.8319 133.465 0 -1089.07 141.562 39.3188 52.6307 0.0706747 0.997499 1 0.5 0 1
236 1 68.324 1.77587 0 147.59 1.77587 0 184.105 -481.88 92.0431 39.0905 0.920431 0.390905 1 0.5 0 1
237 1 71.7142 73.0984 0 71.7142 -6.1676 0 -961.956 99.4067 19.5783 60.1053 0.703946 -0.710253 1 0.5 0 1
238 1 67.2283 22.5269 0 67.2283 101.793 0 430.252 -219.822 1.67021 -30.7677 0.837651 0.546205 1 0.5 0 1
239 1 2.79394 44.0909 0 82.0599 44.0909 0 334.163 -284.587 -129.584 85.1581 -0.268731 -0.963215 1 0.5 0 1
240 1 70.6618 18.082 0 70.6618 18.082 0 803.918 -144.337 104.567 -167.72 0.881115 -0.472901 1 0.5 0 1
241 1 47.6401 38.6023 0 47.6401 38.6023 0 419.26 387.56 32.4759 -173.936 0.990163 -0.139918 1 0.5 0 1
242 1 11.2534 66.2933 0 90.5194 -12.9727 0 -93.1539 -762.074 51.7787 46.9392 0.895202 -0.445661 1 0.5 0 1
243 1 42.6629 66.8443 0 -115.869 66.8443 0 67.3724 342.446 -88.808 -45.9689 -0.88808 -0.459689 1 0.5 0 1
244 1 59.0729 25.6166 0 59.0729 104.883 0 -672.13 65.7312 -28.0579 -143.327 -0.471164 -0.882046 1 0.5 0 1
245 1 56.7806 52.9175 0 56.7806 52.9175 0 362.887 749.44 112.141 -40.7835 -0.550213 -0.835025 1 0.5 0 1
246 1 48.9164 43.5812 0 48.9164 43.5812 0 -787.034 -304.354 -92.2139 -51.0318 0.457228 -0.889349 1 0.5 0 1
247 1 68.1548 55.1659 0 68.1548 -24.1001 0 3.72644 -245.86 147.88 30.6774 -0.787027 -0.616919 1 0.5 0 1
248 1 76.5621 76.321 0 -2.70395 -2.94504 0 -1036.39 -36.8043 116.455 36.3021 0.236223 -0.971699 1 0.5 0 1
249 1 41.3844 46.2241 0 120.65 -33.0419 0 -110.732 -401.676 4.21321 -154.237 0.513322 0.858196 1 0.5 0 1
250 1 58.4543 68.7301 0 216.986 68.7301 0 846.416 -477.177 -6.4877 185.916 -0.0562366 -0.998417 1 0.5 0 1
251 1 61.9912 16.431 0 61.9912 174.963 0 -224.932 -378.068 -8.89747 173.624 0.909273 0.4162 1 0.5 0 1
252 1 58.2548 22.6649 0 58.2548 101.931 0 -148.49 443.997 120.993 184.061 -0.933842 -0.357687 1 0.5 0 1
253 1 17.4689 50.0402 0 17.4689 50.0402 0 -269.005 -484.698 -111.714 -23.0253 0.0353195 -0.999376 1 0.5 0 1
254 1 46.7903 35.6583 0 46.7903 114.924 0 -490.204 -476.498 168.071 105.482 0.932753 -0.360517 1 0.5 0 1
255 1 0.429773 35.1372 0 79.6958 114.403 0 1004.73 -171.572 -194.294 41.8455 -0.0957509 0.995405 1 0.5 0 1
256 1 68.4839 43.7131 0 -10.7821 43.7131 0 591.492 1016.92 134.339 -1.96886 -0.504812 0.863229 1 0.5 0 1
257 1 6.47978 40.6462 0 6.47978 119.912 0 342.828 56.339 17.1637 -66.3226 -0.968743 -0.248067 1 0.5 0 1
258 1 5.95231 28.7339 0 5.95231 -50.5321 0 -418.218 198.718 14.8113 -72.2444 -0.84948 0.52762 1 0.5 0 1
259 1 15.9021 71.6706 0 15.9021 -7.59543 0 -235.774 -256.218 -47.973 -7.22536 -0.280781 -0.959772 1 0.5 0 1
260 1 71.7366 71.3848 0 151.003 -7.88125 0 -231.072 112.518 -3.72719 226.977 0.908752 0.417336 1 0.5 0 1
261 1 8.86499 20.2263 0 8.86499 20.2263 0 414.353 196.411 60.1174 -12.1759 -0.995723 -0.0923884 1 0.5 0 1
262 1 57.4631 62.2214 0 136.729 -17.0446 0 -239.011 -581.47 57.7895 -48.2509 -0.999867 0.0163092 1 0.5 0 1
263 1 1.83884 70.7906 0 -77.4272 -87.7414 0 -46.0289 220.293 -32.5862 -76.8427 0.702853 -0.711335 1 0.5 0 1
264 1 15.6792 35.7483 0 174.211 -43.5177 0 1047.12 -131.39 1.9871 -48.3023 -0.852495 -0.522736 1 0.5 0 1
265 1 51.604 30.6675 0 51.604 109.933 0 -444.596 108.387 68.797 111.213 0.105618 0.994407 1 0.5 0 1
266 1 56.3721 54.6476 0 56.3721 54.6476 0 66.8606 37.7963 -45.8841 65.3065 0.397034 0.917804 1 0.5 0 1
267 1 73.0089 63.7233 0 -6.2571 -15.5427 0 198.376 389.533 -111.479 -81.4752 -0.89658 -0.442882 1 0.5 0 1
268 1 68.0656 61.4079 0 68.0656 61.4079 0 -244.209 390.864 2.91678 92.8859 0.474776 -0.880107 1 0.5 0 1
269 1 55.0359 68.988 0 134.302 68.988 0 448.843 -172.655 -61.4035 -68.6948 0.947484 -0.319802 1 0.5 0 1
270 1 7.633 71.0434 0 7.633 -8.22262 0 -153.962 47.0248 -33.6494 47.5075 -0.896144 -0.443763 1 0.5 0 1
271 1 50.2729 8.67984 0 129.539 8.67984 0 251.355 -631.845 74.2407 8.31204 0.897774 -0.440457 1 0.5 0 1
272 1 50.8048 40.5112 0 50.8048 40.5112 0 -475.039 -290.373 -220.338 -106.627 0.625251 0.780423 1 0.5 0 1
273 1 60.1368 52.0567 0 60.1368 52.0567 0 96.1404 465.644 51.3759 57.8086 -0.876908 0.480659 1 0.5 0 1
274 1 22.1974 43.6243 0 101.463 43.6243 0 605.758 672.902 48.3568 -28.4713 -0.812257 0.5833 1 0.5 0 1
275 1 12.2617 66.3739 0 91.5277 -12.8921 0 533.933 -40.3211 149.756 0.652813 0.75913 -0.65094 1 0.5 0 1
276 1 57.8338 46.9049 0 57.8338 46.9049 0 -1137.24 -83.7827 256.841 204.934 0.303593 0.952802 1 0.5 0 1
277 1 56.57 69.3476 0 56.57 -9.91845 0 264.689 108.956 -3.99945 -19.6013 0.901123 -0.433563 1 0.5 0 1
278 1 9.13206 34.2532 0 -70.1339 113.519 0 -199.352 -508.396 -161.162 -139.982 0.178959 -0.983856 1 0.5 0 1
279 1 17.3328 43.0559 0 96.5988 -115.476 0 -396.535 -32.5603 -160.295 82.1165 0.0518633 0.998654 1 0.5 0 1
280 1 2.44548 71.6677 0 -76.8205 -86.8643 0 -486.616 -74.4993 -35.3195 43.5269 -0.297716 -0.954655 1 0.5 0 1
281 1 69.6341 57.4146 0 69.6341 57.4146 0 -925.282 427.002 117.477 -327.881 -0.854848 0.518878 1 0.5 0 1
282 1 48.0795 50.7089 0 48.0795 -28.5571 0 351.843 -605.271 -10.685 77.6306 0.889873 0.456209 1 0.5 0 1
283 1 68.3571 32.7012 0 -10.9089 111.967 0 -504.924 -57.8232 11.9138 10.9356 -0.22204 -0.975038 1 0.5 0 1
284 1 4.70399 30.9516 0 4.70399 110.218 0 126.281 -8.74702 -168.122 118.153 0.30145 -0.953482 1 0.5 0 1
285 1 64.8852 36.1827 0 64.8852 36.1827 0 671.833 346.062 -36.4542 -75.683 -0.948997 -0.315286 1 0.5 0 1