ITEM: TIMESTEP
120000
ITEM: NUMBER OF ATOMS
4000
ITEM: BOX BOUNDS pp pp pp
0.0000000000000000e+00 7.9266000000000005e+01
0.0000000000000000e+00 7.9266000000000005e+01
-5.0000000000000000e-01 5.0000000000000000e-01
ITEM: ATOMS id type x y z xu yu zu vx vy fx fy mux muy mu radius omegaz mass
1 1 58.1621 74.2043 0 58.1621 74.2043 0 -80.784 -199.129 28.4844 15.562 0.984182 0.177163 1 0.5 0 1
2 1 26.7605 61.2662 0 26.7605 -17.9998 0 329.587 -303.973 8.12923 -12.2665 0.733737 -0.679434 1 0.5 0 1
3 1 53.4726 57.0818 0 53.4726 -22.1842 0 983.535 408.948 -83.2084 -12.5828 -0.61848 -0.785801 1 0.5 0 1
4 1 56.4671 30.6671 0 56.4671 109.933 0 1117.43 342.188 -118.815 300.585 -0.999899 -0.014211 1 0.5 0 1
5 1 28.9426 22.7637 0 28.9426 22.7637 0 -339.87 -591.173 -99.8768 4.96201 -0.998768 0.0496201 1 0.5 0 1
6 1 14.4925 24.1872 0 14.4925 24.1872 0 348.126 555.292 -63.0255 31.8732 -0.879609 -0.475697 1 0.5 0 1
7 1 69.1847 46.3121 0 69.1847 46.3121 0 -7.01455 -70.3809 -105.289 -31.9759 -0.180917 0.983498 1 0.5 0 1
8 1 23.9586 70.6857 0 23.9586 -8.58026 0 678.434 -735.578 13.8646 86.0805 0.101138 -0.994872 1 0.5 0 1
9 1 56.9258 17.9201 0 56.9258 17.9201 0 -885.497 -506.004 -179.973 -47.7178 0.972522 -0.232812 1 0.5 0 1
10 1 54.4697 56.6973 0 54.4697 56.6973 0 665.396 206.871 -48.7521 -84.4223 -0.880551 -0.473951 1 0.5 0 1
11 1 41.5259 52.7578 0 -37.7401 52.7578 0 46.9381 518.373 -35.798 -0.247197 -0.83677 -0.547555 1 0.5 0 1
12 1 66.0124 68.1128 0 66.0124 68.1128 0 -432.103 43.9288 -70.8181 -44.9858 0.328017 0.944672 1 0.5 0 1
13 1 27.817 43.9695 0 27.817 43.9695 0 314.845 89.7588 48.343 -92.4115 0.84242 -0.538821 1 0.5 0 1
14 1 48.7134 42.1336 0 -30.5526 42.1336 0 11.106 -37.9899 7.28407 -84.7888 -0.991806 -0.12775 1 0.5 0 1
15 1 31.9841 48.7497 0 31.9841 48.7497 0 -767.617 83.8746 -98.1268 -75.6504 -0.665272 -0.746601 1 0.5 0 1
16 1 48.2235 2.56394 0 -31.0425 2.56394 0 -469.744 -20.9989 -120 -72.5134 -0.918389 -0.395679 1 0.5 0 1
17 1 38.8605 63.5117 0 38.8605 63.5117 0 563.364 -528.291 24.0697 82.3293 0.226123 0.974099 1 0.5 0 1
18 1 18.6759 10.3605 0 18.6759 10.3605 0 693.271 -611.785 33.1102 -114.068 -0.90936 0.416009 1 0.5 0 1
19 1 10.5092 40.2425 0 10.5092 40.2425 0 -430.642 -20.8024 -98.177 -122.523 -0.479358 -0.877619 1 0.5 0 1
20 1 28.4419 60.6821 0 28.4419 60.6821 0 381.649 567.877 4.85214 -135.645 0.649984 0.759948 1 0.5 0 1
21 1 42.9823 4.67318 0 42.9823 4.67318 0 375.882 -95.105 -21.614 -14.68 -0.939375 0.342891 1 0.5 0 1
22 1 58.3847 21.1716 0 58.3847 21.1716 0 993.893 183.06 -25.995 -29.0556 0.998492 0.0548958 1 0.5 0 1
23 1 48.4628 61.8713 0 48.4628 -17.3947 0 1.94028 196.432 88.0868 -47.3361 0.880868 -0.473361 1 0.5 0 1
24 1 65.2722 54.3202 0 65.2722 -24.9458 0 -158.038 364.383 22.872 -13.6337 0.110872 -0.993835 1 0.5 0 1
25 1 57.1329 69.7865 0 -22.1331 -9.4795 0 217.926 -199.93 -103.976 34.621 -0.878407 -0.477914 1 0.5 0 1
26 1 26.6592 46.6856 0 26.6592 -32.5804 0 741.129 383.32 -23.6034 -10.5237 -0.357424 -0.933942 1 0.5 0 1
27 1 24.6922 44.5221 0 24.6922 44.5221 0 80.4251 -89.4013 -125.582 46.4383 -0.794936 0.606693 1 0.5 0 1
28 1 13.2974 66.7316 0 13.2974 66.7316 0 -56.8951 -306.659 -43.124 12.2879 -0.245902 0.969295 1 0.5 0 1
29 1 78.7996 37.2804 0 -0.466379 37.2804 0 -637.564 -303.981 118.978 -15.7592 -0.912042 -0.410096 1 0.5 0 1
30 1 52.9952 30.5268 0 52.9952 109.793 0 -58.9785 -239.569 128.462 -132.343 0.972021 0.234893 1 0.5 0 1
31 1 14.955 30.0987 0 14.955 30.0987 0 -296.744 189.334 -143.992 45.6761 -0.792397 -0.610005 1 0.5 0 1
32 1 26.9915 55.8724 0 26.9915 55.8724 0 -270.785 -338.438 86.6133 -49.7066 0.805493 0.592605 1 0.5 0 1
33 1 40.1527 58.9146 0 40.1527 -20.3514 0 -790.524 -129.358 71.0581 51.7088 0.952474 0.30462 1 0.5 0 1
34 1 8.56123 41.6754 0 87.8272 41.6754 0 60.2468 186.994 10.2772 150.179 -0.184546 0.982824 1 0.5 0 1
35 1 74.466 63.6384 0 -4.79997 63.6384 0 -352.371 -211.458 -92.5628 70.457 -0.822095 -0.569351 1 0.5 0 1
36 1 43.2064 68.5158 0 43.2064 -10.7502 0 -588.653 -260.505 -99.5779 106.751 0.564409 -0.825495 1 0.5 0 1
37 1 73.6037 40.1348 0 73.6037 40.1348 0 49.4597 330.55 125.83 -173.446 0.82028 0.571963 1 0.5 0 1
38 1 27.0743 59.6075 0 106.34 59.6075 0 467.037 -628.507 -102.137 -45.3801 0.318707 0.947853 1 0.5 0 1
39 1 35.3645 66.25 0 35.3645 -13.016 0 25.4534 -604.626 50.7611 30.2281 -0.309745 -0.95082 1 0.5 0 1
40 1 46.7003 1.84211 0 -32.5657 1.84211 0 -78.577 136.397 -91.8709 26.653 -0.895458 0.445146 1 0.5 0 1
41 1 69.8844 49.7757 0 69.8844 49.7757 0 350.847 -192.918 -47.2667 15.9378 0.269456 -0.963013 1 0.5 0 1
42 1 76.6897 60.8738 0 -2.57627 60.8738 0 202.302 270.355 -71.0071 -70.413 -0.710071 -0.70413 1 0.5 0 1
43 1 70.2845 64.7352 0 -8.98146 64.7352 0 954.294 366.564 -132.989 52.9649 -0.62545 0.780264 1 0.5 0 1
44 1 60.0979 11.8758 0 60.0979 91.1418 0 -0.526431 -1280.95 -278.003 217.602 -0.33768 0.941261 1 0.5 0 1
45 1 23.8763 26.2618 0 23.8763 26.2618 0 -530.278 -110.35 85.1824 -42.8558 0.706182 -0.708031 1 0.5 0 1
46 1 10.3193 34.7396 0 10.3193 34.7396 0 -129.267 296.494 -142.032 -4.14679 -0.324012 0.946053 1 0.5 0 1
47 1 15.5001 68.3889 0 15.5001 -10.8771 0 -405.744 513.702 55.0506 19.1685 0.998947 0.045872 1 0.5 0 1
48 1 38.2846 47.2514 0 38.2846 47.2514 0 -448.112 127.409 -36.2836 23.7306 -0.99083 -0.135116 1 0.5 0 1
49 1 13.8747 16.8889 0 93.1407 96.1549 0 -231.891 -224.325 -38.4033 36.4266 0.878291 0.478127 1 0.5 0 1
50 1 64.1303 27.0479 0 64.1303 27.0479 0 -708.163 264.186 -20.6909 -143.931 -0.731179 0.682185 1 0.5 0 1
51 1 69.7179 16.0434 0 -9.54809 16.0434 0 66.075 -1085.07 -45.0239 69.9483 -0.836999 0.547205 1 0.5 0 1
52 1 17.2503 10.3388 0 96.5163 10.3388 0 470.009 272.621 -45.2395 -101.182 0.953117 0.302601 1 0.5 0 1
53 1 33.0192 28.1158 0 33.0192 107.382 0 -203.377 144.395 -18.0519 96.0923 -0.182417 0.983221 1 0.5 0 1
54 1 54.6103 26.3583 0 54.6103 26.3583 0 824.631 256.505 -29.1585 105.367 0.304255 -0.952591 1 0.5 0 1
55 1 15.4738 8.0757 0 94.7398 87.3417 0 800.177 -422.883 -50.9938 40.5873 0.98242 0.186684 1 0.5 0 1
56 1 37.209 47.2765 0 37.209 47.2765 0 373.113 635.863 48.3624 0.640659 -0.953451 -0.301549 1 0.5 0 1
57 1 20.7917 72.9872 0 20.7917 72.9872 0 -180.995 125.294 187.363 191.94 -0.829594 -0.558367 1 0.5 0 1
58 1 4.99349 9.6261 0 4.99349 9.6261 0 -598.556 162.136 -33.8974 -29.332 -0.882023 0.471207 1 0.5 0 1
59 1 66.9167 27.4817 0 66.9167 27.4817 0 -959.226 -94.9235 61.1937 43.1748 -0.282481 0.959273 1 0.5 0 1
60 1 59.8362 35.3214 0 59.8362 35.3214 0 -237.119 12.4206 129.198 1.72552 0.452061 0.891987 1 0.5 0 1
61 1 61.987 39.3022 0 61.987 39.3022 0 258.473 289.417 -34.9853 97.0326 0.704282 0.70992 1 0.5 0 1
62 1 60.8223 78.5135 0 60.8223 -0.752497 0 841.753 -63.8379 73.4394 -67.8723 0.734394 -0.678723 1 0.5 0 1
63 1 51.2099 51.5168 0 -28.0561 51.5168 0 -286.254 207.338 -70.9461 -75.3878 -0.739685 -0.672954 1 0.5 0 1
64 1 62.2772 62.2875 0 62.2772 62.2875 0 -284.753 527.895 52.8649 84.884 0.528649 0.84884 1 0.5 0 1
65 1 74.775 5.16317 0 74.775 84.4292 0 496.564 367.163 48.167 90.3318 0.472389 0.88139 1 0.5 0 1
66 1 72.4664 79.0217 0 72.4664 79.0217 0 -655.417 -513.112 36.5111 57.4761 0.67281 0.739815 1 0.5 0 1
67 1 57.3097 36.7101 0 57.3097 36.7101 0 172.17 -90.1714 27.4943 9.19825 0.983373 0.181597 1 0.5 0 1
68 1 53.2492 58.4535 0 53.2492 58.4535 0 -172.444 -184.848 15.9537 127.008 -0.313112 0.949716 1 0.5 0 1
69 1 27.3369 64.8661 0 27.3369 64.8661 0 -132.019 -25.8615 -89.508 -122.13 0.0653732 -0.997861 1 0.5 0 1
70 1 37.2507 20.5741 0 37.2507 99.8401 0 309.007 432.534 128.441 15.2774 0.446149 0.894959 1 0.5 0 1
71 1 24.2086 36.7648 0 24.2086 36.7648 0 354.396 254.973 -84.9248 -19.9699 -0.971258 -0.23803 1 0.5 0 1
72 1 78.785 57.1661 0 -0.481012 57.1661 0 423.809 4.44441 -71.3493 -27.3125 -0.239909 -0.970795 1 0.5 0 1
73 1 66.8402 77.5194 0 66.8402 -1.74658 0 177.924 -245.329 -57.1645 -82.0501 -0.571645 -0.820501 1 0.5 0 1
74 1 66.8116 66.6285 0 66.8116 66.6285 0 -631.415 736.263 -18.308 -156.49 0.865728 0.500515 1 0.5 0 1
75 1 1.23697 36.258 0 1.23697 36.258 0 -37.7602 20.2213 50.859 -108.289 -0.992667 0.12088 1 0.5 0 1
76 1 67.7292 25.9163 0 -11.5368 25.9163 0 -718.338 663.977 75.9972 98.0164 -0.885608 0.464433 1 0.5 0 1
77 1 3.89389 32.6234 0 3.89389 32.6234 0 924.513 -1105.93 -117.668 -160.581 0.0471849 0.998886 1 0.5 0 1
78 1 25.3746 41.8141 0 25.3746 41.8141 0 12.4566 571.815 -94.0905 95.9311 -0.754032 0.656838 1 0.5 0 1
79 1 21.7152 75.9846 0 21.7152 75.9846 0 -8.45685 39.9138 -46.5687 -63.1173 -0.908188 0.418563 1 0.5 0 1
80 1 20.5528 25.4899 0 20.5528 -53.7761 0 -40.9449 59.7284 -91.9427 -39.3261 -0.919427 -0.393261 1 0.5 0 1
81 1 34.4089 35.5028 0 113.675 35.5028 0 364.736 391.457 187.525 31.5284 0.999407 -0.0344341 1 0.5 0 1
82 1 5.65066 37.8633 0 5.65066 37.8633 0 831.908 485.967 104.164 62.0686 -0.951536 0.307536 1 0.5 0 1
83 1 49.965 53.8934 0 49.965 53.8934 0 -147.698 -420.384 50.6209 86.2411 0.506209 0.862411 1 0.5 0 1
84 1 0.483887 43.8408 0 0.483887 43.8408 0 -170.058 40.1044 -61.9429 -80.2938 -0.76644 -0.642316 1 0.5 0 1
85 1 25.7608 65.5571 0 25.7608 -13.7089 0 420.367 -184.924 8.19986 -116.094 0.201137 -0.979563 1 0.5 0 1
86 1 10.4945 73.3923 0 10.4945 -5.87368 0 -646.686 -143.87 -94.2736 33.3538 -0.942736 0.333538 1 0.5 0 1
87 1 39.3781 49.203 0 39.3781 49.203 0 1183.34 159.162 21.8588 61.5949 -0.49977 0.866158 1 0.5 0 1
88 1 48.0117 38.3661 0 48.0117 38.3661 0 410.758 -173.789 -28.7073 -0.174401 -0.926157 0.377138 1 0.5 0 1
89 1 19.8575 64.8226 0 19.8575 64.8226 0 -276.838 -355.822 -90.9177 57.633 0.9016 0.432572 1 0.5 0 1
90 1 13.1738 38.7966 0 13.1738 38.7966 0 -21.338 -375.019 -62.7498 73.489 -0.999958 -0.00917775 1 0.5 0 1
91 1 11.327 53.205 0 11.327 -26.061 0 629.592 526.564 81.1805 -59.3292 0.996897 -0.0787228 1 0.5 0 1
92 1 4.05944 53.7583 0 4.05944 53.7583 0 -114.801 -430.732 77.4456 33.9781 -0.892167 -0.451706 1 0.5 0 1
93 1 4.85907 44.5215 0 4.85907 44.5215 0 656.714 119.206 17.6609 -163.301 -0.684976 -0.728565 1 0.5 0 1
94 1 75.2191 34.1927 0 75.2191 34.1927 0 35.933 -493.593 70.7056 37.5483 0.502762 0.864425 1 0.5 0 1
95 1 69.2231 45.3401 0 69.2231 45.3401 0 73.2342 -796.537 49.3276 2.82809 0.60524 0.796043 1 0.5 0 1
96 1 57.8938 35.3619 0 57.8938 35.3619 0 198.052 371.697 -167.923 86.2327 0.996529 -0.0832459 1 0.5 0 1
97 1 65.0361 26.5144 0 65.0361 26.5144 0 -413.133 -686.061 -59.9961 -27.4051 -0.808236 -0.588858 1 0.5 0 1
98 1 4.38815 10.4783 0 4.38815 89.7443 0 -256.173 95.5138 91.3886 -49.7139 0.949555 0.3136 1 0.5 0 1
99 1 38.7722 21.9779 0 38.7722 21.9779 0 297.495 -519.178 34.9022 -165.662 -0.227505 -0.973777 1 0.5 0 1
100 1 76.2733 41.6863 0 76.2733 41.6863 0 194.925 -469.657 -165.499 185.796 0.777867 -0.628429 1 0.5 0 1
101 1 50.1339 12.6667 0 50.1339 12.6667 0 -284.338 -175.15 45.1941 -56.9461 0.0511937 -0.998689 1 0.5 0 1
102 1 3.10735 41.4431 0 3.10735 41.4431 0 -128.823 462.381 -363.948 38.6 -0.953075 0.302735 1 0.5 0 1
103 1 14.312 58.0231 0 14.312 58.0231 0 -584.576 25.1206 29.0221 -0.364338 -0.580342 0.814373 1 0.5 0 1
104 1 56.5671 38.4039 0 56.5671 117.67 0 -1147.85 -261.09 -130.56 -40.6014 0.794205 0.60765 1 0.5 0 1
105 1 61.2384 53.708 0 -18.0276 -25.558 0 -757.306 108.602 -96.64 -120.913 -0.598193 -0.801352 1 0.5 0 1
106 1 21.5776 36.2745 0 21.5776 36.2745 0 613.547 462.012 50.9433 44.282 -1 0.000665599 1 0.5 0 1
107 1 68.0719 31.9915 0 68.0719 31.9915 0 -593.726 79.4342 -10.7877 18.4207 -0.438083 0.898934 1 0.5 0 1
108 1 4.80001 35.2987 0 4.80001 114.565 0 137.841 138.146 9.95736 25.8578 0.824829 0.565382 1 0.5 0 1
109 1 69.2913 64.8457 0 -9.97467 64.8457 0 -411.766 437.918 -130.266 60.2809 -0.973239 0.229797 1 0.5 0 1
110 1 18.7515 41.9207 0 18.7515 41.9207 0 49.0785 -702.07 14.0326 92.9851 0.98435 0.176223 1 0.5 0 1
111 1 23.6903 28.4213 0 23.6903 28.4213 0 -128.777 147.525 87.5723 4.50302 0.905821 -0.423661 1 0.5 0 1
112 1 16.9572 42.438 0 16.9572 42.438 0 -52.0463 -151.888 -99.6541 -8.31017 -0.996541 -0.0831017 1 0.5 0 1
113 1 40.2422 10.3261 0 -39.0238 10.3261 0 -162.671 -691.759 -12.6889 11.6465 -0.178675 0.983908 1 0.5 0 1
114 1 19.9209 54.8974 0 19.9209 54.8974 0 -492.655 -86.2358 -24.4353 -68.9564 0.999991 -0.00428097 1 0.5 0 1
115 1 71.3573 70.1668 0 -7.90869 -9.09916 0 438.974 -205.551 -45.5969 59.4801 -0.740588 0.671959 1 0.5 0 1
116 1 23.5483 72.458 0 23.5483 -6.80797 0 162.867 38.6358 -0.895065 -26.9582 -0.706311 -0.707902 1 0.5 0 1
117 1 65.6763 62.616 0 65.6763 62.616 0 148.628 214.826 -87.9616 -45.432 -0.765463 0.64348 1 0.5 0 1
118 1 58.611 34.71 0 58.611 34.71 0 252.108 199.015 96.6919 -208.785 -0.1598 -0.987149 1 0.5 0 1
119 1 26.0631 26.6546 0 26.0631 26.6546 0 -406.695 -485.832 133.308 55.664 0.897976 0.440044 1 0.5 0 1
120 1 6.71012 20.5975 0 85.9761 20.5975 0 -81.3799 651.654 29.556 3.22179 0.999835 0.0181663 1 0.5 0 1
121 1 42.1356 29.2244 0 -37.1304 29.2244 0 -336.797 323.261 -79.9593 -41.2926 -0.805138 -0.593088 1 0.5 0 1
122 1 37.7672 64.8827 0 37.7672 64.8827 0 373.715 53.0006 -52.1947 36.6481 0.0404269 0.999182 1 0.5 0 1
123 1 1.10753 28.7931 0 1.10753 28.7931 0 -166.652 -355.277 -34.9204 -22.9419 -0.682578 0.730813 1 0.5 0 1
124 1 47.1318 28.8816 0 47.1318 28.8816 0 -215.836 -478.101 12.8527 14.0387 -0.312046 0.950067 1 0.5 0 1
125 1 57.5271 20.6167 0 57.5271 20.6167 0 -164.976 -386.562 61.7243 -28.7753 0.899112 0.437719 1 0.5 0 1
126 1 0.151915 75.9099 0 79.4179 75.9099 0 194.912 226.733 91.4566 39.4026 0.963311 0.268389 1 0.5 0 1
127 1 63.9208 20.7701 0 63.9208 100.036 0 238.022 177.436 19.2994 27.7216 0.620571 0.78415 1 0.5 0 1
128 1 32.2619 37.8163 0 -47.0041 37.8163 0 31.4552 607.109 -97.7004 21.3221 -0.977004 0.213221 1 0.5 0 1
129 1 67.0854 54.3805 0 67.0854 -24.8855 0 -550.028 -77.3677 13.4517 46.0776 0.243065 -0.97001 1 0.5 0 1
130 1 73.1517 53.9091 0 73.1517 -25.3569 0 211.262 323.226 -3.14168 -58.045 0.554678 -0.832065 1 0.5 0 1
131 1 72.8418 69.071 0 -6.42422 69.071 0 -268.794 454.788 36.1713 35.8163 -0.709452 0.704754 1 0.5 0 1
132 1 72.9903 18.9197 0 -6.2757 98.1857 0 -187.935 186.387 -154.647 51.6882 -0.857936 0.513756 1 0.5 0 1
133 1 65.9486 25.9876 0 65.9486 105.254 0 457.25 -336.383 16.4727 19.6846 -0.307447 0.951565 1 0.5 0 1
134 1 38.845 66.4887 0 38.845 66.4887 0 475.544 -145.613 -19.01 -10.1989 -0.945212 -0.326458 1 0.5 0 1
135 1 52.5094 8.50135 0 52.5094 87.7673 0 -665.832 80.2401 0.814346 41.6896 -0.369989 0.929036 1 0.5 0 1
136 1 44.089 25.2389 0 44.089 104.505 0 114.357 -441.037 57.3297 71.7812 0.635254 0.772303 1 0.5 0 1
137 1 30.8572 41.5573 0 110.123 41.5573 0 143.181 366.227 152.024 -60.9388 0.603767 0.79716 1 0.5 0 1
138 1 42.3624 18.0539 0 42.3624 18.0539 0 -5.65148 -273.53 -73.5721 24.6116 -0.503098 -0.864229 1 0.5 0 1
139 1 30.5859 63.5104 0 30.5859 -15.7556 0 -651.122 382.15 33.7894 -103.106 -0.914799 -0.403908 1 0.5 0 1
140 1 21.4468 74.9287 0 21.4468 -4.33732 0 770.77 121.198 -92.4931 51.9962 -0.519762 -0.854311 1 0.5 0 1
141 1 14.8992 41.4778 0 14.8992 41.4778 0 296.532 -104.124 14.7537 65.48 -0.727583 0.686019 1 0.5 0 1
142 1 23.9482 59.0062 0 23.9482 59.0062 0 -829.275 -83.4514 -50.5309 -34.2681 -0.920253 0.391325 1 0.5 0 1
143 1 25.9954 16.153 0 25.9954 95.419 0 -189.86 -336.553 -54.4674 60.7313 -0.779564 0.626323 1 0.5 0 1
144 1 52.9592 74.0013 0 52.9592 -5.26475 0 76.7506 -118.26 29.3847 -78.5687 -0.0148955 -0.999889 1 0.5 0 1
145 1 63.54 1.7113 0 63.54 80.9773 0 937.615 839.624 13.9729 31.917 0.0831052 0.996541 1 0.5 0 1
146 1 20.128 73.7493 0 20.128 -5.51668 0 68.5413 286.877 -31.8061 -34.9248 -0.45139 -0.892327 1 0.5 0 1
147 1 77.3672 10.0873 0 77.3672 10.0873 0 -1208.05 614.513 43.932 7.16646 -0.619607 -0.784912 1 0.5 0 1
148 1 10.0793 14.7537 0 89.3453 14.7537 0 273.947 -24.4086 72.4637 147.234 0.995249 0.0973631 1 0.5 0 1
149 1 77.6413 28.4254 0 77.6413 107.691 0 170.783 -819.357 -69.9407 -32.3055 -0.020367 0.999793 1 0.5 0 1
150 1 72.4893 32.5647 0 -6.77673 32.5647 0 -886.269 447.3 80.6941 131.351 -0.648983 0.760803 1 0.5 0 1
151 1 2.25938 54.6765 0 81.5254 -24.5895 0 -333.9 141.186 4.81337 -48.5515 0.0504865 -0.998725 1 0.5 0 1
152 1 26.8529 39.6046 0 26.8529 118.871 0 -180.731 -614.465 17.3564 1.0218 0.32568 0.94548 1 0.5 0 1
153 1 75.0124 57.9925 0 75.0124 57.9925 0 -79.4681 83.7269 0.275401 0.819904 0.906043 -0.423186 1 0.5 0 1
154 1 4.59455 48.6625 0 4.59455 48.6625 0 574.318 257.375 -24.3636 106.58 -0.757725 -0.652574 1 0.5 0 1
155 1 31.04 14.1787 0 -48.226 14.1787 0 -156.65 215.535 -99.9762 -2.17978 -0.999762 -0.0217978 1 0.5 0 1
156 1 76.1351 46.6286 0 76.1351 46.6286 0 43.0017 63.0671 84.4167 -166.83 -0.33546 0.942055 1 0.5 0 1
157 1 65.6176 15.2622 0 -13.6484 15.2622 0 112.119 -509.988 28.3436 -11.2067 -0.0155766 0.999879 1 0.5 0 1
158 1 71.7248 36.1315 0 -7.5412 36.1315 0 -107.235 -70.225 -98.405 -194.251 -0.984918 -0.173021 1 0.5 0 1
159 1 77.4412 78.3086 0 77.4412 78.3086 0 -144.892 -31.7836 -28.5667 95.8329 -0.285667 0.958329 1 0.5 0 1
160 1 23.4484 75.14 0 23.4484 -4.12604 0 -27.3958 -65.8414 114.028 18.1645 -0.435652 -0.900115 1 0.5 0 1
161 1 0.166731 3.72448 0 0.166731 3.72448 0 342.12 -495.881 -0.162379 -34.639 0.350883 -0.936419 1 0.5 0 1
162 1 8.05236 49.2936 0 8.05236 49.2936 0 77.3788 372.228 11.5024 -33.0852 -0.92957 -0.368647 1 0.5 0 1
163 1 65.6903 44.2476 0 65.6903 44.2476 0 -343.852 -318.477 249.48 -16.0945 -0.128603 -0.991696 1 0.5 0 1
164 1 31.708 51.8045 0 31.708 51.8045 0 -513.048 -354.862 -35.3793 -11.5709 0.990587 -0.136882 1 0.5 0 1
165 1 47.3922 5.47889 0 47.3922 5.47889 0 -40.4522 96.0428 2.78152 -89.6469 -0.452002 -0.892017 1 0.5 0 1
166 1 24.6891 38.0822 0 24.6891 38.0822 0 -324.795 687.8 -109.872 19.1262 -0.838754 0.544511 1 0.5 0 1
167 1 58.2386 22.1927 0 58.2386 22.1927 0 3.90563 251.174 44.5625 21.2181 0.967217 -0.253951 1 0.5 0 1
168 1 25.3795 10.6905 0 25.3795 89.9565 0 322.643 -8.42446 -34.7921 92.4051 -0.379938 0.925012 1 0.5 0 1
169 1 28.3301 13.0452 0 28.3301 92.3112 0 81.8929 135.928 22.9108 97.3401 0.229108 0.973401 1 0.5 0 1
170 1 71.0768 71.4544 0 71.0768 71.4544 0 -178.078 572.726 -119.71 117.707 0.385169 0.922846 1 0.5 0 1
171 1 7.4309 34.03 0 86.6969 34.03 0 299.924 283.117 -63.8384 -58.8085 0.0192944 -0.999814 1 0.5 0 1
172 1 19.6238 50.7773 0 19.6238 -28.4887 0 142.686 -241.079 19.7033 94.8716 -0.972248 0.233954 1 0.5 0 1
173 1 52.022 13.4243 0 52.022 13.4243 0 154.749 -559.101 25.3591 -119.553 0.152512 -0.988302 1 0.5 0 1
174 1 11.6985 47.7261 0 11.6985 47.7261 0 -105.964 -438.693 -47.2108 -21.0235 -0.844754 0.535155 1 0.5 0 1
175 1 18.9121 1.1697 0 18.9121 1.1697 0 221.945 -1443.4 37.8683 98.8769 0.634484 0.772936 1 0.5 0 1
176 1 16.8264 49.0601 0 16.8264 49.0601 0 69.4195 -82.492 0.914749 57.2734 -0.873037 -0.487653 1 0.5 0 1
177 1 26.5203 78.7331 0 26.5203 78.7331 0 -393.742 244.028 13.8382 99.0897 0.0353603 0.999375 1 0.5 0 1
178 1 59.7838 24.4175 0 -19.4822 103.683 0 253.502 204.676 24.3008 -67.2794 -0.750449 0.660929 1 0.5 0 1
179 1 5.03128 54.1888 0 5.03128 -25.0772 0 291.482 222.806 -40.1914 -4.97606 -0.955498 -0.294997 1 0.5 0 1
180 1 77.9612 39.7853 0 77.9612 39.7853 0 -294.857 449.479 205.722 -28.1077 0.32095 0.947096 1 0.5 0 1
181 1 53.7578 29.0186 0 53.7578 29.0186 0 -467.941 -315.297 -35.4308 77.108 -0.0101366 0.999949 1 0.5 0 1
182 1 24.3551 29.7463 0 24.3551 109.012 0 44.3917 728.328 -99.8884 -4.72376 -0.998884 -0.0472376 1 0.5 0 1
183 1 46.4509 57.9704 0 46.4509 -21.2956 0 472.728 -121.534 51.0607 -91.8165 0.76416 -0.645026 1 0.5 0 1
184 1 67.3041 38.4105 0 67.3041 38.4105 0 1303.82 280.17 -74.642 -240.16 -0.628932 0.77746 1 0.5 0 1
185 1 37.0903 34.1974 0 37.0903 34.1974 0 -627.626 430.034 71.172 -81.8512 -0.988031 -0.154252 1 0.5 0 1
186 1 26.3386 56.6762 0 26.3386 56.6762 0 487.417 -218.075 3.86821 49.6786 -0.487935 0.87288 1 0.5 0 1
187 1 68.7558 27.4416 0 -10.5102 106.708 0 -68.2286 513.722 24.3889 35.893 -0.584587 0.811331 1 0.5 0 1
188 1 3.69196 57.8798 0 82.958 57.8798 0 162.877 458.183 48.0115 -13.694 0.997229 0.0743894 1 0.5 0 1
189 1 16.1801 12.025 0 16.1801 12.025 0 270.088 -83.9323 24.3378 28.4356 0.999405 -0.0344833 1 0.5 0 1
190 1 3.7078 70.139 0 3.7078 70.139 0 491.795 320.62 -55.2674 49.5308 -0.75019 0.661222 1 0.5 0 1
191 1 21.7368 77.0108 0 101.003 -2.25524 0 -752.356 487.08 0.494853 -34.7181 0.989441 -0.144934 1 0.5 0 1
192 1 65.5326 33.4406 0 65.5326 33.4406 0 84.8041 6.18017 3.17102 105.995 0.153292 -0.988181 1 0.5 0 1
193 1 73.0275 2.36573 0 -6.23849 2.36573 0 54.2702 378.226 11.1922 -3.89478 -0.999629 0.0272279 1 0.5 0 1
194 1 34.1023 71.7903 0 34.1023 71.7903 0 428.165 -591.447 -53.9173 -46.175 -0.747009 -0.664814 1 0.5 0 1
195 1 52.7479 25.449 0 52.7479 25.449 0 -1224.84 652.49 59.0829 -6.47772 0.522185 0.852832 1 0.5 0 1
196 1 62.9187 35.9016 0 62.9187 35.9016 0 -157.505 -209.873 63.8497 168.227 -0.669955 -0.742402 1 0.5 0 1
197 1 76.0457 67.787 0 -3.22031 67.787 0 -730.919 84.7794 -6.07944 34.5595 -0.857025 -0.515276 1 0.5 0 1
198 1 77.1184 43.2086 0 77.1184 43.2086 0 -282.972 -56.6046 99.1832 78.9947 -0.0988713 -0.9951 1 0.5 0 1
199 1 73.7449 19.6413 0 -5.52106 19.6413 0 193.206 -339.323 -1.89797 -1.66606 -0.750841 -0.660483 1 0.5 0 1
200 1 18.2877 65.4799 0 18.2877 65.4799 0 -114.982 -385.363 -76.901 82.396 0.971539 -0.236881 1 0.5 0 1
201 1 16.2972 52.1414 0 16.2972 -27.1246 0 -8.65282 574.857 -19.7134 -43.2163 -0.999682 0.0252047 1 0.5 0 1
202 1 55.6202 4.43348 0 -23.6458 4.43348 0 -304.014 -289.042 43.4808 -25.9375 0.367597 -0.929985 1 0.5 0 1
203 1 7.53514 75.7732 0 7.53514 75.7732 0 849.483 -22.0496 -57.7285 80.5608 -0.586372 0.810042 1 0.5 0 1
204 1 16.0485 20.4133 0 16.0485 20.4133 0 -503.324 -764.325 71.2594 -23.6257 0.897925 -0.440148 1 0.5 0 1
205 1 30.8891 61.6446 0 30.8891 61.6446 0 991.177 -723.232 21.1238 95.2853 -0.966264 0.257553 1 0.5 0 1
206 1 78.5634 59.2276 0 -0.702647 -20.0384 0 146.421 -128.785 -32.1279 -25.4883 -0.246766 -0.969075 1 0.5 0 1
207 1 13.8055 58.9469 0 13.8055 58.9469 0 -142.132 334.348 -163.586 109.488 -0.00496864 0.999988 1 0.5 0 1
208 1 48.2659 55.4902 0 48.2659 55.4902 0 169.196 275.768 -81.6595 6.59715 -0.89429 -0.447487 1 0.5 0 1
209 1 46.6601 50.6644 0 46.6601 50.6644 0 -161.706 419.381 7.15233 -87.3799 -0.79184 0.610729 1 0.5 0 1
210 1 9.97834 78.1712 0 9.97834 78.1712 0 -190.495 -331.195 -116.599 -8.90306 -0.998465 -0.0553888 1 0.5 0 1
211 1 64.6233 37.8917 0 64.6233 37.8917 0 262.528 204.826 114.688 -109.86 0.187864 0.982195 1 0.5 0 1
212 1 22.3879 79.2021 0 101.654 -0.063895 0 88.4276 -156.6 99.608 -8.84526 0.99608 -0.0884526 1 0.5 0 1
213 1 49.3631 57.3719 0 49.3631 57.3719 0 -277.748 140.59 95.6255 29.2535 0.956255 0.292535 1 0.5 0 1
214 1 54.5482 22.0903 0 54.5482 101.356 0 534.271 -173.437 -30.3718 114.804 0.95578 0.294082 1 0.5 0 1
215 1 15.7102 69.3702 0 15.7102 -9.89584 0 162.062 283.666 -17.0985 56.6 0.37131 0.928509 1 0.5 0 1
216 1 32.2549 36.437 0 32.2549 115.703 0 -278.926 -297.386 -87.4067 62.0745 -0.402598 0.915377 1 0.5 0 1
217 1 44.0801 9.31192 0 44.0801 9.31192 0 83.6705 76.47 32.9697 -71.8922 -0.207779 -0.978176 1 0.5 0 1
218 1 34.7305 45.0833 0 34.7305 45.0833 0 -34.229 -175.719 9.29651 -111.434 0.687121 0.726543 1 0.5 0 1
219 1 55.5734 39.9899 0 55.5734 39.9899 0 258.765 -465.912 70.2583 18.8926 0.202486 -0.979285 1 0.5 0 1
220 1 67.1938 74.5079 0 67.1938 -4.75813 0 349.854 -844.632 -82.1412 -57.0335 -0.821412 -0.570335 1 0.5 0 1
221 1 34.1758 74.6854 0 34.1758 74.6854 0 -776.463 183.876 41.7699 -11.9916 0.640333 0.768098 1 0.5 0 1
222 1 30.4825 50.3245 0 30.4825 -28.9415 0 1.75112 333.892 126.24 -49.8492 0.454825 -0.890581 1 0.5 0 1
223 1 77.0987 35.2194 0 -2.16728 35.2194 0 77.9202 989.512 -159.042 30.3472 0.833033 0.553223 1 0.5 0 1
224 1 67.6081 63.7137 0 -11.6579 63.7137 0 -50.0092 297.181 16.7428 92.8826 0.671416 0.741081 1 0.5 0 1
225 1 10.6493 54.0571 0 89.9153 -25.2089 0 -317.051 -178.174 76.7865 -24.3813 0.942948 -0.33294 1 0.5 0 1
226 1 35.14 0.402087 0 35.14 0.402087 0 -170.917 -186.585 141.499 2.45485 -0.0789846 -0.996876 1 0.5 0 1
227 1 6.82147 33.1245 0 86.0875 33.1245 0 -237.683 765.885 21.9968 74.6416 -0.0713107 0.997454 1 0.5 0 1
228 1 74.0604 68.4812 0 -5.20559 68.4812 0 -976.051 646.988 -97.7133 -21.2631 -0.977133 -0.212631 1 0.5 0 1
229 1 59.1674 32.1382 0 59.1674 32.1382 0 -534.544 -474.306 116.658 85.8357 0.943847 0.330383 1 0.5 0 1
230 1 59.9382 30.6229 0 59.9382 109.889 0 -447.172 189.362 2.38658 376.085 -0.59044 0.807082 1 0.5 0 1
231 1 62.2883 67.5748 0 62.2883 67.5748 0 485.22 254.931 43.4416 -63.0986 0.982669 0.185369 1 0.5 0 1
232 1 46.9323 44.2241 0 46.9323 -35.0419 0 -379.098 -268.593 71.5068 15.3032 0.636381 -0.771375 1 0.5 0 1
233 1 10.2659 42.8371 0 10.2659 42.8371 0 -35.1327 -117.6 64.2522 -40.5936 -0.887268 -0.461255 1 0.5 0 1
234 1 28.7149 65.9774 0 28.7149 -13.2886 0 -437.921 -362.339 134.954 -32.0938 -0.678041 0.735024 1 0.5 0 1
235 1 22.9849 63.4155 0 22.9849 63.4155 0 301.229 -1002.37 15.1535 -27.7747 0.524399 0.851473 1 0.5 0 1
236 1 0.772254 73.5365 0 80.0383 73.5365 0 219.389 621.242 85.6843 51.5577 0.856843 0.515577 1 0.5 0 1
237 1 53.7841 27.9647 0 53.7841 27.9647 0 135.913 171.719 -21.0374 172.604 0.947711 0.319131 1 0.5 0 1
238 1 42.5529 66.6428 0 42.5529 66.6428 0 -149.897 -526.52 84.5056 49.9286 0.638569 0.769565 1 0.5 0 1
239 1 7.60744 40.0074 0 86.8734 40.0074 0 -649.058 -88.1499 10.0045 4.30209 0.205144 0.978732 1 0.5 0 1
240 1 24.2697 34.9566 0 24.2697 34.9566 0 73.0443 -404.47 97.1021 -5.19041 0.998803 -0.0489173 1 0.5 0 1
241 1 47.9949 46.0881 0 47.9949 46.0881 0 -336.452 -578.238 -73.3756 -108.426 0.266428 -0.963855 1 0.5 0 1
242 1 69.6757 70.0418 0 69.6757 -9.22416 0 -120.267 -361.486 32.8975 -16.8306 0.990924 -0.134423 1 0.5 0 1
243 1 71.5433 69.159 0 -7.72269 69.159 0 43.9011 -283.473 16.9324 -22.2843 -0.258734 0.965949 1 0.5 0 1
244 1 40.0134 46.1254 0 40.0134 46.1254 0 -560.468 -269.224 -37.1409 25.0523 0.178863 0.983874 1 0.5 0 1
245 1 57.6465 43.9054 0 57.6465 43.9054 0 -19.5202 269.431 86.2125 27.8927 0.8036 -0.59517 1 0.5 0 1
246 1 42.8574 37.1882 0 42.8574 37.1882 0 444.385 646.396 104.092 37.3524 0.988805 0.149214 1 0.5 0 1
247 1 68.0827 50.7394 0 68.0827 -28.5266 0 -297.506 291.685 35.8408 40.4423 -0.900805 -0.434224 1 0.5 0 1
248 1 57.9357 10.8666 0 -21.3303 90.1326 0 -122.962 -149.704 -26.9844 99.2652 -0.163997 0.986461 1 0.5 0 1
249 1 61.329 17.7282 0 61.329 17.7282 0 -165.695 463.937 -29.3628 82.7389 0.962078 0.272776 1 0.5 0 1
250 1 16.1822 57.2228 0 95.4482 57.2228 0 458.875 301.16 -144.728 7.14615 0.495066 0.868856 1 0.5 0 1
251 1 46.8699 39.8626 0 46.8699 119.129 0 721.334 -278.768 -100.128 166.066 0.0123506 0.999924 1 0.5 0 1
252 1 21.4331 64.133 0 21.4331 64.133 0 304.029 460.047 -23.7653 54.1373 -0.0545753 0.99851 1 0.5 0 1
253 1 26.8004 57.641 0 26.8004 57.641 0 277.537 224.149 27.0398 95.5423 0.766657 0.642057 1 0.5 0 1
254 1 47.1287 3.97799 0 47.1287 83.244 0 -292.499 357.259 95.7209 12.8683 -0.501212 0.865324 1 0.5 0 1
255 1 6.94606 29.2949 0 86.2121 108.561 0 381.391 23.494 8.55342 70.5146 -0.121846 0.992549 1 0.5 0 1
256 1 72.7101 39.6038 0 -6.55592 39.6038 0 -343.56 174.743 95.401 -66.5811 0.306021 -0.952025 1 0.5 0 1
257 1 12.9057 28.2919 0 12.9057 107.558 0 577.63 16.6028 -97.7697 -21.7998 -0.82542 0.564519 1 0.5 0 1
258 1 39.9371 72.706 0 39.9371 -6.56003 0 45.7198 -10.5838 -19.5976 -59.7508 0.608776 -0.793342 1 0.5 0 1
259 1 17.8788 21.5146 0 97.1448 21.5146 0 919.584 -415.125 65.0381 64.8785 -0.0515686 0.998669 1 0.5 0 1
260 1 15.32 31.0619 0 94.586 31.0619 0 45.2761 817.81 26.4717 20.5834 0.64374 -0.765244 1 0.5 0 1
261 1 12.5136 9.40212 0 12.5136 9.40212 0 49.0817 132.631 -31.521 -93.862 -0.566898 -0.823788 1 0.5 0 1
262 1 54.2453 5.93158 0 133.511 5.93158 0 -373.157 -64.799 85.7788 -51.4004 0.857788 -0.514004 1 0.5 0 1
263 1 57.0829 71.8236 0 -22.1831 -7.44238 0 857.375 279.059 38.9183 -57.0019 -0.954885 -0.296976 1 0.5 0 1
264 1 12.8578 32.3558 0 92.1238 32.3558 0 530.891 209.347 -1.91561 -43.9936 0.824866 -0.565328 1 0.5 0 1
265 1 20.2606 2.6291 0 20.2606 81.8951 0 -469.058 70.8379 44.9294 -11.2277 0.545977 0.8378 1 0.5 0 1
266 1 58.6113 47.469 0 58.6113 47.469 0 -91.8752 397.078 69.8966 88.5348 0.99936 -0.0357726 1 0.5 0 1
267 1 15.5844 2.85997 0 15.5844 2.85997 0 66.7069 176.914 8.04674 40.7239 -0.99289 -0.119032 1 0.5 0 1
268 1 71.4181 67.497 0 71.4181 67.497 0 109.496 57.1173 75.0765 -60.0497 0.0945026 -0.995525 1 0.5 0 1
269 1 51.8755 10.6636 0 131.142 10.6636 0 334.653 391.502 45.5555 -3.03936 0.801519 0.59797 1 0.5 0 1
270 1 35.0209 1.7505 0 114.287 1.7505 0 -123.292 -859.14 84.5354 -53.4207 0.845354 -0.534207 1 0.5 0 1
271 1 51.1083 30.662 0 51.1083 30.662 0 507.202 -141.022 -34.3518 25.1556 0.872177 -0.489191 1 0.5 0 1
272 1 58.2433 31.7547 0 58.2433 31.7547 0 245.786 -78.3104 -8.08653 3.28175 0.676203 0.736715 1 0.5 0 1
273 1 61.2583 44.7026 0 61.2583 44.7026 0 -130.908 981.379 -58.3074 -35.6766 0.806532 -0.591191 1 0.5 0 1
274 1 30.5523 58.8061 0 30.5523 -20.4599 0 -10.7308 -183.51 75.5848 -13.7683 -0.982437 0.186596 1 0.5 0 1
275 1 65.4359 3.67009 0 65.4359 3.67009 0 -242.459 -246.539 109.68 47.15 0.996036 -0.0889501 1 0.5 0 1
276 1 61.1005 39.7472 0 61.1005 39.7472 0 -116.936 -250.252 54.0074 158.511 0.884073 0.467349 1 0.5 0 1
277 1 49.7108 39.7932 0 -29.5552 39.7932 0 681.026 655.718 8.18607 -51.4796 -0.517633 -0.855603 1 0.5 0 1
278 1 1.96036 4.64311 0 1.96036 83.9091 0 -121.736 -237.161 -44.4127 40.7231 -0.707458 0.706755 1 0.5 0 1
279 1 9.23192 31.6716 0 88.4979 31.6716 0 -653.047 -170.394 137.815 7.45159 0.971016 -0.239015 1 0.5 0 1
280 1 62.1493 71.9957 0 62.1493 -7.27032 0 922.307 566.941 -41.2223 7.36715 -0.0431546 -0.999068 1 0.5 0 1
281 1 68.0205 53.8874 0 68.0205 53.8874 0 -257.271 155.526 -176.936 11.2258 0.737947 -0.674859 1 0.5 0 1
282 1 40.6767 67.4521 0 40.6767 -11.8139 0 265.673 468.857 25.4798 -68.7162 0.484918 -0.87456 1 0.5 0 1
283 1 76.9517 23.0993 0 -2.31427 102.365 0 -146.306 623.072 -31.0342 95.0625 -0.310342 0.950625 1 0.5 0 1
284 1 64.8481 14.5947 0 -14.4179 93.8607 0 -183.744 -803.412 14.3646 -37.0931 -0.121409 0.992603 1 0.5 0 1
285 1 71.6127 30.9881 0 71.6127 30.9881 0 284.822 185.425 64.5654 -55.1339 0.909997 -0.414614 1 0.5 0 1