ITEM: TIMESTEP
130000
ITEM: NUMBER OF ATOMS
4000
ITEM: BOX BOUNDS pp pp pp
0.0000000000000000e+00 7.9266000000000005e+01
0.0000000000000000e+00 7.9266000000000005e+01
-5.0000000000000000e-01 5.0000000000000000e-01
ITEM: ATOMS id type x y z xu yu zu vx vy fx fy mux muy mu radius omegaz mass
1 1 63.1265 78.2156 0 63.1265 78.2156 0 450.536 -116.351 124.627 51.456 0.939494 0.342567 1 0.5 0 1
2 1 26.1514 60.2448 0 26.1514 -19.0212 0 233.694 566.133 119.679 -19.1601 0.693754 -0.720212 1 0.5 0 1
3 1 51.0204 56.1674 0 51.0204 -23.0986 0 -386.33 -1153.35 -46.6359 -86.1959 -0.936872 -0.349673 1 0.5 0 1
4 1 55.0968 31.4965 0 55.0968 110.762 0 -89.9113 -10.5588 16.9817 58.7639 -0.914318 -0.404997 1 0.5 0 1
5 1 22.2677 22.7794 0 22.2677 22.7794 0 -266.292 -443.194 -33.0864 -1.69626 -0.987361 0.158485 1 0.5 0 1
6 1 9.56307 24.07 0 9.56307 24.07 0 -331.265 467.69 -26.8725 -77.7404 -0.699181 -0.714944 1 0.5 0 1
7 1 69.4589 46.6116 0 69.4589 46.6116 0 518.661 28.3035 19.2539 -2.21688 -0.71211 0.702068 1 0.5 0 1
8 1 25.8315 70.1209 0 25.8315 -9.14511 0 -554.705 -105.954 -76.3994 92.6425 0.151236 -0.988498 1 0.5 0 1
9 1 58.8268 18.2706 0 58.8268 18.2706 0 191.651 791.65 17.966 126.304 0.893663 -0.448739 1 0.5 0 1
10 1 50.1905 55.3793 0 50.1905 55.3793 0 416.113 195.258 -97.8216 -20.7589 -0.978216 -0.207589 1 0.5 0 1
11 1 37.5209 51.2888 0 -41.7451 51.2888 0 -694.265 -55.4391 -13.5347 -2.69638 -0.560614 -0.828077 1 0.5 0 1
12 1 68.8704 69.9495 0 68.8704 69.9495 0 -32.4278 928.83 131.307 38.6991 0.372156 0.92817 1 0.5 0 1
13 1 29.1248 42.9938 0 29.1248 42.9938 0 -661.402 341.869 30.4766 10.5945 0.71676 -0.697319 1 0.5 0 1
14 1 44.4381 40.9654 0 -34.8279 40.9654 0 -62.5021 243.609 -69.1362 -45.4027 -0.782395 -0.622782 1 0.5 0 1
15 1 31.293 45.7578 0 31.293 45.7578 0 -361.989 135.579 -36.6267 79.1848 -0.890991 -0.45402 1 0.5 0 1
16 1 40.5017 0.628345 0 -38.7643 0.628345 0 -495.655 766.236 -80.4592 -6.96268 -0.993419 -0.11454 1 0.5 0 1
17 1 44.6589 66.8303 0 44.6589 66.8303 0 -513.558 691.07 85.5352 -49.4025 0.954953 0.296756 1 0.5 0 1
18 1 17.9129 11.5783 0 17.9129 11.5783 0 -280.079 379.346 35.3706 -100.13 -0.382345 0.92402 1 0.5 0 1
19 1 8.30871 38.8003 0 8.30871 38.8003 0 401.527 -713.598 55.1576 205.635 -0.556417 -0.830903 1 0.5 0 1
20 1 28.709 60.7653 0 28.709 60.7653 0 327.425 245.432 67.9624 -24.2509 0.739579 0.67307 1 0.5 0 1
21 1 37.3477 10.5643 0 37.3477 10.5643 0 -330.226 -795.021 -128.476 77.6364 -0.627897 0.778296 1 0.5 0 1
22 1 60.2421 21.5063 0 60.2421 21.5063 0 -283.018 -118.477 146.396 36.0655 0.992817 0.119644 1 0.5 0 1
23 1 52.1099 58.6077 0 52.1099 -20.6583 0 -243.191 -514.563 -0.222456 -41.372 0.96802 -0.250874 1 0.5 0 1
24 1 65.7998 54.5206 0 65.7998 -24.7454 0 145.466 745.306 6.09489 58.9629 0.186295 -0.982494 1 0.5 0 1
25 1 53.4991 66.6001 0 -25.7669 -12.6659 0 -1010.47 106.803 -112.336 -36.8766 -0.865238 -0.501362 1 0.5 0 1
26 1 24.1004 43.7097 0 24.1004 -35.5563 0 -1310.6 -77.2756 -16.1551 -94.3792 -0.00279979 -0.999996 1 0.5 0 1
27 1 21.5653 49.2186 0 21.5653 49.2186 0 -183.706 62.6177 -26.0913 71.7327 -0.496018 0.868312 1 0.5 0 1
28 1 14.6079 67.8613 0 14.6079 67.8613 0 691.259 374.092 117.916 76.0856 -0.242605 0.970125 1 0.5 0 1
29 1 78.6712 37.1842 0 -0.594792 37.1842 0 398.901 626.616 -116.039 103.019 -0.982913 -0.184069 1 0.5 0 1
30 1 52.2747 29.9815 0 52.2747 109.247 0 -90.8927 76.6221 70.8718 96.5215 0.95646 0.291864 1 0.5 0 1
31 1 14.1834 27.7488 0 14.1834 27.7488 0 -463.423 -165.145 -66.981 -67.2967 -0.974023 -0.226448 1 0.5 0 1
32 1 27.9509 53.713 0 27.9509 53.713 0 423.179 -246.008 -18.7843 -18.2942 0.900896 -0.434035 1 0.5 0 1
33 1 46.1371 58.291 0 46.1371 -20.975 0 742.662 -146.033 -40.9228 -11.0749 0.997426 -0.0717076 1 0.5 0 1
34 1 9.48664 41.8029 0 88.7526 41.8029 0 221.482 198.329 41.3164 -13.6349 -0.369648 0.929172 1 0.5 0 1
35 1 70.164 60.8223 0 -9.10196 60.8223 0 493.284 -26.0644 -41.7178 7.31511 -0.995814 0.0913992 1 0.5 0 1
36 1 47.3005 65.962 0 47.3005 -13.304 0 122.311 265.078 58.4007 -112.903 0.966609 -0.256257 1 0.5 0 1
37 1 73.7065 40.284 0 73.7065 40.284 0 816.011 -1591.69 -135.135 200.302 0.62252 0.782604 1 0.5 0 1
38 1 26.063 58.6076 0 105.329 58.6076 0 -646.888 628.393 60.8487 -170.701 0.207739 0.978184 1 0.5 0 1
39 1 35.5991 61.512 0 35.5991 -17.754 0 -38.3577 -701.912 -112.227 -17.507 0.195144 -0.980775 1 0.5 0 1
40 1 39.6239 5.78599 0 -39.6421 5.78599 0 11.7111 -457.354 -55.7712 85.653 -0.493321 0.869847 1 0.5 0 1
41 1 70.263 50.0268 0 70.263 50.0268 0 291.369 -693.369 -14.7803 97.7786 0.308858 -0.951108 1 0.5 0 1
42 1 73.42 58.2522 0 -5.84603 58.2522 0 -32.5258 603.225 -2.73722 -40.552 -0.431712 -0.902011 1 0.5 0 1
43 1 67.5222 63.9184 0 -11.7438 63.9184 0 -585.896 -308.491 100.767 18.0901 -0.288403 0.957509 1 0.5 0 1
44 1 56.0716 12.3824 0 56.0716 91.6484 0 -638.631 -461.021 -33.6324 90.2945 -0.0887205 0.996057 1 0.5 0 1
45 1 28.7911 22.9778 0 28.7911 22.9778 0 -205.182 -250.319 135.436 -65.2806 0.866808 -0.498643 1 0.5 0 1
46 1 10.841 36.5645 0 10.841 36.5645 0 -659.273 -811.718 -80.4717 92.2814 0.00904027 0.999959 1 0.5 0 1
47 1 16.9008 69.6667 0 16.9008 -9.59934 0 -703.847 -26.6208 -14.0409 92.4605 0.968659 0.248394 1 0.5 0 1
48 1 37.4857 47.2745 0 37.4857 47.2745 0 -614.915 165.983 -138.237 46.3175 -0.871773 -0.48991 1 0.5 0 1
49 1 17.6073 18.0653 0 96.8733 97.3313 0 -194.703 -275.401 57.2865 -27.9589 0.972385 0.233384 1 0.5 0 1
50 1 63.0652 28.2684 0 63.0652 28.2684 0 -220.453 -248.22 -70.169 214.155 -0.884508 0.466525 1 0.5 0 1
51 1 68.1832 17.9023 0 -11.0828 17.9023 0 -226.82 74.1489 36.2165 -16.941 -0.702271 0.711909 1 0.5 0 1
52 1 19.4559 7.9306 0 98.7219 7.9306 0 34.9545 -947.902 -28.5783 -49.392 0.78271 0.622386 1 0.5 0 1
53 1 33.1007 34.4115 0 33.1007 113.677 0 249.555 -346.461 -18.416 42.2864 -0.0045321 0.99999 1 0.5 0 1
54 1 54.6762 26.375 0 54.6762 26.375 0 466.049 260.71 86.9234 -223.961 0.126434 -0.991975 1 0.5 0 1
55 1 16.6017 8.37211 0 95.8677 87.6381 0 -755.176 -520.384 102.868 11.0378 0.999926 0.0121745 1 0.5 0 1
56 1 36.5865 47.8651 0 36.5865 47.8651 0 704.227 -459.194 -19.8602 -36.2028 -0.82384 0.566822 1 0.5 0 1
57 1 22.6389 73.7651 0 22.6389 73.7651 0 -120.341 894.69 -47.4672 -38.9313 -0.981034 -0.193837 1 0.5 0 1
58 1 1.68924 13.0037 0 1.68924 13.0037 0 -142.638 -203.447 -16.0489 57.8436 -0.596624 0.802521 1 0.5 0 1
59 1 65.6794 28.725 0 65.6794 28.725 0 -944.443 1247.39 16.9355 154.048 -0.773044 0.634352 1 0.5 0 1
60 1 60.4919 35.6696 0 60.4919 35.6696 0 -59.476 -575.4 -17.4897 93.5431 0.775751 0.631039 1 0.5 0 1
61 1 62.2806 39.6554 0 62.2806 39.6554 0 348.473 -273.623 -56.7198 -51.159 0.551786 0.833986 1 0.5 0 1
62 1 64.494 75.5145 0 64.494 -3.75153 0 -87.0777 -525.699 84.5243 13.2784 0.949525 -0.313691 1 0.5 0 1
63 1 45.945 45.4543 0 -33.321 45.4543 0 217.348 -403.723 -40.8887 -35.9929 -0.116978 -0.993135 1 0.5 0 1
64 1 64.0777 67.1259 0 64.0777 67.1259 0 -111.87 69.6653 14.196 15.4644 0.372511 0.928028 1 0.5 0 1
65 1 78.4783 9.34928 0 78.4783 88.6153 0 905.613 -458.225 70.5298 76.0644 0.727173 0.686455 1 0.5 0 1
66 1 77.6189 3.32093 0 77.6189 82.5869 0 0.224231 172.983 48.248 13.0932 0.422473 0.906376 1 0.5 0 1
67 1 57.7892 37.1984 0 57.7892 37.1984 0 27.4108 924.521 -36.2376 -75.2876 0.999119 -0.0419719 1 0.5 0 1
68 1 48.15 63.4577 0 48.15 63.4577 0 379.47 -352.633 -54.8746 5.76603 -0.99132 0.131472 1 0.5 0 1
69 1 27.5877 63.5621 0 27.5877 63.5621 0 -60.931 -95.4256 -92.6113 -172.489 -0.358423 -0.933559 1 0.5 0 1
70 1 39.5251 26.7674 0 39.5251 106.033 0 165.98 -422.015 20.7557 97.8223 0.207557 0.978223 1 0.5 0 1
71 1 19.9796 32.7742 0 19.9796 32.7742 0 -906.794 -490.158 -49.0523 17.9262 -0.699087 -0.715037 1 0.5 0 1
72 1 78.95 57.2689 0 -0.315994 57.2689 0 -37.3047 245.615 -18.6759 -26.0567 0.385471 -0.92272 1 0.5 0 1
73 1 61.4044 76.6258 0 61.4044 -2.64016 0 937.364 -246.158 -52.5348 107.614 -0.998403 0.0564923 1 0.5 0 1
74 1 69.4911 68.2556 0 69.4911 68.2556 0 -140.942 -269.292 54.1686 26.6169 0.937871 0.346985 1 0.5 0 1
75 1 1.05069 36.1242 0 1.05069 36.1242 0 -906.069 407.74 71.1579 38.016 -0.973359 0.229285 1 0.5 0 1
76 1 66.5166 27.2336 0 -12.7494 27.2336 0 -444.763 139.327 127.411 15.5716 -0.947856 0.3187 1 0.5 0 1
77 1 3.42226 32.4787 0 3.42226 32.4787 0 232.009 -155.812 23.7409 -113.473 -0.209536 0.977801 1 0.5 0 1
78 1 22.6353 48.9691 0 22.6353 48.9691 0 46.2826 -67.1125 -27.8924 85.7302 -0.444314 0.895871 1 0.5 0 1
79 1 22.7503 76.5117 0 22.7503 76.5117 0 789.168 -212.338 -5.38347 11.0523 -0.903265 0.429083 1 0.5 0 1
80 1 15.4935 26.2927 0 15.4935 -52.9733 0 -741.951 -7.73925 101.25 125.021 -0.664721 -0.747092 1 0.5 0 1
81 1 42.2849 36.4967 0 121.551 36.4967 0 -258.614 -146.724 93.5589 -39.7928 0.94299 -0.33282 1 0.5 0 1
82 1 5.51317 37.5075 0 5.51317 37.5075 0 312.355 -107.651 6.03731 75.5424 -0.896894 0.442246 1 0.5 0 1
83 1 53.0218 59.9588 0 53.0218 59.9588 0 306.07 -209.519 57.1835 82.0369 0.571835 0.820369 1 0.5 0 1
84 1 0.60496 43.6243 0 0.60496 43.6243 0 614.913 575.61 0.336413 -0.0161804 -0.093438 -0.995625 1 0.5 0 1
85 1 26.2472 64.6695 0 26.2472 -14.5965 0 -467.231 101.373 131.707 -29.4664 0.443019 -0.896512 1 0.5 0 1
86 1 6.36629 79.1791 0 6.36629 -0.086932 0 210.162 268.821 -36.1627 78.6279 -0.4858 0.87407 1 0.5 0 1
87 1 36.9305 49.7038 0 36.9305 49.7038 0 -90.1779 585.976 7.01916 -8.59065 -0.841848 0.539715 1 0.5 0 1
88 1 47.1437 37.8106 0 47.1437 37.8106 0 624.748 366.751 -105.642 13.4401 -0.999628 -0.0272604 1 0.5 0 1
89 1 20.4564 65.4942 0 20.4564 65.4942 0 599.537 197.189 -31.6811 42.3832 0.945233 0.326395 1 0.5 0 1
90 1 9.81429 36.5688 0 9.81429 36.5688 0 -525.739 540.925 -49.6826 -48.7703 -0.871791 -0.489878 1 0.5 0 1
91 1 16.6554 54.8289 0 16.6554 -24.4371 0 -351.816 -846.91 118.731 76.9987 0.946486 0.322744 1 0.5 0 1
92 1 3.96464 53.6185 0 3.96464 53.6185 0 -16.2862 50.4343 -141.261 98.8812 -0.999966 0.00821594 1 0.5 0 1
93 1 4.9579 44.0922 0 4.9579 44.0922 0 784.371 -395.973 134.584 -65.3111 -0.690528 -0.723306 1 0.5 0 1
94 1 75.246 34.196 0 75.246 34.196 0 339.319 -113.391 -66.0699 -36.0268 0.550933 0.834549 1 0.5 0 1
95 1 69.4885 45.6402 0 69.4885 45.6402 0 63.9415 278.103 -137.256 8.69858 0.612143 0.790747 1 0.5 0 1
96 1 57.7886 36.1906 0 57.7886 36.1906 0 -480.427 -326.125 -34.3587 -4.80482 0.992018 -0.126097 1 0.5 0 1
97 1 63.8654 27.7253 0 63.8654 27.7253 0 -186.345 880.29 37.9205 -72.2314 -0.310642 -0.950527 1 0.5 0 1
98 1 10.7269 14.3821 0 10.7269 93.6481 0 428.269 -1.99036 34.0252 -115.103 0.755545 0.655097 1 0.5 0 1
99 1 39.9381 14.6704 0 39.9381 14.6704 0 491.899 631.662 32.7491 -33.4271 0.146763 -0.989172 1 0.5 0 1
100 1 76.3427 41.7397 0 76.3427 41.7397 0 -36.3185 -105.144 20.2109 -91.8761 0.302099 -0.953277 1 0.5 0 1
101 1 48.438 7.44563 0 48.438 7.44563 0 530.689 -619.213 -29.3141 -95.6069 -0.293141 -0.956069 1 0.5 0 1
102 1 3.13828 41.1401 0 3.13828 41.1401 0 83.4733 2.23349 30.2744 -221.718 -0.875589 0.483058 1 0.5 0 1
103 1 9.50749 62.785 0 9.50749 62.785 0 -388.433 -184.141 -25.5309 18.2143 -0.56552 0.824735 1 0.5 0 1
104 1 56.8522 37.6954 0 56.8522 116.961 0 590.72 77.9774 78.1954 50.3983 0.999742 0.0227062 1 0.5 0 1
105 1 55.3118 48.3576 0 -23.9542 -30.9084 0 -711.756 8.94915 -76.8984 -9.24214 -0.927878 -0.372884 1 0.5 0 1
106 1 16.9656 37.5267 0 16.9656 37.5267 0 229.678 435.981 20.361 -6.62838 -0.929634 -0.368484 1 0.5 0 1
107 1 68.2562 32.3303 0 68.2562 32.3303 0 -579.672 -1205.33 -50.4318 72.3509 -0.772606 0.634885 1 0.5 0 1
108 1 4.44414 34.955 0 4.44414 114.221 0 -638.498 1354.79 24.6994 -29.5362 0.437064 0.89943 1 0.5 0 1
109 1 64.9243 66.4953 0 -14.3417 66.4953 0 533.849 -687.807 26.2593 87.8209 -0.999191 0.0402089 1 0.5 0 1
110 1 19.6807 42.2328 0 19.6807 42.2328 0 418.411 204.724 37.7297 -4.49637 0.971325 -0.237754 1 0.5 0 1
111 1 27.824 23.322 0 27.824 23.322 0 520.496 -1160.58 -85.7079 -65.7393 0.969675 -0.244396 1 0.5 0 1
112 1 13.0649 44.2098 0 13.0649 44.2098 0 -435.227 864.493 16.2907 90.9792 -0.827274 0.561798 1 0.5 0 1
113 1 36.297 17.3862 0 -42.969 17.3862 0 -249.889 619.828 -26.1235 96.5275 -0.261235 0.965275 1 0.5 0 1
114 1 27.0115 53.1708 0 27.0115 53.1708 0 -140.984 -754.09 72.8202 -23.4789 0.996816 -0.0797331 1 0.5 0 1
115 1 68.3424 73.1901 0 -10.9236 -6.07593 0 -223.865 231.372 -19.3277 -61.9785 -0.702139 0.71204 1 0.5 0 1
116 1 24.9231 72.0659 0 24.9231 -7.20012 0 139.203 -952.93 -101.502 39.6788 -0.368338 -0.929692 1 0.5 0 1
117 1 61.4085 66.2423 0 61.4085 66.2423 0 176.562 -54.7659 -132.307 -32.5331 -0.899759 0.436387 1 0.5 0 1
118 1 58.6601 35.6517 0 58.6601 35.6517 0 -284.963 -424.478 38.5427 96.4424 -0.0726432 -0.997358 1 0.5 0 1
119 1 33.4612 27.3281 0 33.4612 27.3281 0 -217.664 528.369 97.4628 -22.3831 0.974628 -0.223831 1 0.5 0 1
120 1 11.5576 21.0635 0 90.8236 21.0635 0 636.964 292.909 49.2092 -29.8159 0.994466 -0.105062 1 0.5 0 1
121 1 34.9711 27.7891 0 -44.2949 27.7891 0 -1069.1 -101.829 -107.19 -6.76165 -0.91268 -0.408674 1 0.5 0 1
122 1 37.4363 70.4699 0 37.4363 70.4699 0 436.102 -630.647 -24.9914 63.2111 0.372784 0.927918 1 0.5 0 1
123 1 0.925879 28.6963 0 0.925879 28.6963 0 -655.437 735.264 -47.4379 -112.874 -0.67738 0.735633 1 0.5 0 1
124 1 44.2523 31.3801 0 44.2523 31.3801 0 -85.2766 24.6653 -38.2822 92.3822 -0.382822 0.923822 1 0.5 0 1
125 1 59.425 20.9194 0 59.425 20.9194 0 -836.545 -422.454 54.4113 -80.4314 0.804255 0.594284 1 0.5 0 1
126 1 6.67436 0.931345 0 85.9404 80.1973 0 -318.701 37.2127 42.6634 6.3415 0.496704 0.86792 1 0.5 0 1
127 1 64.8259 24.3433 0 64.8259 103.609 0 -422.928 226.451 -71.9333 -91.9925 -0.379642 0.925133 1 0.5 0 1
128 1 29.3624 41.0226 0 -49.9036 41.0226 0 -558.556 -878.27 75.7669 128.562 -0.670388 0.74201 1 0.5 0 1
129 1 67.5494 54.4592 0 67.5494 -24.8068 0 184.857 -962.374 28.5848 279.15 0.635628 -0.771995 1 0.5 0 1
130 1 73.7744 54.0398 0 73.7744 -25.2262 0 -680.459 513.641 41.027 -188.785 0.447313 -0.894377 1 0.5 0 1
131 1 73.8547 72.8956 0 -5.41128 72.8956 0 -86.4216 840.648 3.55971 97.2663 -0.519789 0.854294 1 0.5 0 1
132 1 68.4416 20.9893 0 -10.8244 100.255 0 -138.326 465.932 -3.99968 -33.9935 -0.506616 0.862172 1 0.5 0 1
133 1 64.7555 27.2801 0 64.7555 106.546 0 422.955 68.5547 3.6676 -190.245 0.432526 0.901622 1 0.5 0 1
134 1 34.9978 66.7525 0 34.9978 66.7525 0 276.919 -302.844 -3.47285 -1.28956 -0.775468 -0.631387 1 0.5 0 1
135 1 50.2388 11.0938 0 50.2388 90.3598 0 553.487 -72.0838 -41.0538 91.1843 -0.410538 0.911843 1 0.5 0 1
136 1 46.4174 32.8245 0 46.4174 112.09 0 -62.7559 -144.133 6.85974 99.7644 0.0685974 0.997644 1 0.5 0 1
137 1 30.3698 40.5331 0 109.636 40.5331 0 374.963 592.039 -66.4679 54.8472 0.831202 0.555971 1 0.5 0 1
138 1 36.9448 14.1806 0 36.9448 14.1806 0 -536.755 -222.538 -69.2357 -72.1555 -0.692357 -0.721555 1 0.5 0 1
139 1 31.6383 62.9789 0 31.6383 -16.2871 0 -418.931 -334.632 -13.0407 -195.61 -0.878608 -0.477543 1 0.5 0 1
140 1 22.39 75.528 0 22.39 -3.73801 0 519.149 69.51 -68.512 12.7107 -0.415355 -0.909659 1 0.5 0 1
141 1 13.7619 47.2567 0 13.7619 47.2567 0 211.043 -22.0841 11.9353 92.2649 -0.727067 0.686567 1 0.5 0 1
142 1 23.0051 58.808 0 23.0051 58.808 0 87.2012 -98.2035 9.79013 51.7755 -0.99231 0.123779 1 0.5 0 1
143 1 22.843 21.6288 0 22.843 100.895 0 -217.024 250.46 61.3368 70.7343 -0.534149 0.84539 1 0.5 0 1
144 1 52.8935 63.6736 0 52.8935 -15.5924 0 295.272 438.103 0.127579 -99.9999 0.00127579 -0.999999 1 0.5 0 1
145 1 63.878 9.02483 0 63.878 88.2908 0 152.59 -905.773 -3.00573 32.8216 0.229619 0.973281 1 0.5 0 1
146 1 20.9727 74.409 0 20.9727 -4.85703 0 -178.421 281.576 89.0527 114.616 -0.535883 -0.844292 1 0.5 0 1
147 1 72.3537 5.54161 0 72.3537 5.54161 0 -888.459 104.244 -11.4684 -99.3402 -0.114684 -0.993402 1 0.5 0 1
148 1 13.5057 13.8688 0 92.7717 13.8688 0 -315.827 -1038.68 22.3366 -1.5704 0.928586 0.371117 1 0.5 0 1
149 1 77.4697 28.2964 0 77.4697 107.562 0 -372.96 599.056 -43.2003 -129.365 -0.128514 0.991708 1 0.5 0 1
150 1 72.5752 32.7431 0 -6.69082 32.7431 0 -307.232 -84.1999 45.0208 238.038 -0.511849 0.859076 1 0.5 0 1
151 1 2.25377 55.6773 0 81.5198 -23.5887 0 805.049 106.447 -80.734 -10.4549 -0.17802 -0.984027 1 0.5 0 1
152 1 26.4205 40.1022 0 26.4205 119.368 0 74.2194 -67.7794 41.8652 3.53654 0.550055 0.835128 1 0.5 0 1
153 1 75.3468 58.2039 0 75.3468 58.2039 0 -10.676 -301.843 -29.68 -57.7654 0.648563 -0.761161 1 0.5 0 1
154 1 4.89051 48.1599 0 4.89051 48.1599 0 -219.533 -255.208 117.274 -29.0892 -0.0136331 -0.999907 1 0.5 0 1
155 1 26.5308 12.9604 0 -52.7352 12.9604 0 -624.171 -94.6051 13.5268 54.0068 -0.991317 0.131493 1 0.5 0 1
156 1 76.4192 46.6222 0 76.4192 46.6222 0 -48.7313 -942.303 59.5111 14.8169 -0.682057 0.731299 1 0.5 0 1
157 1 65.1657 17.3389 0 -14.1003 17.3389 0 -199.421 -251.253 -98.4057 -20.5667 -0.132065 0.991241 1 0.5 0 1
158 1 71.8086 36.3409 0 -7.45742 36.3409 0 128.284 488.084 139.062 -180.068 -0.782061 0.623202 1 0.5 0 1
159 1 75.982 8.47111 0 75.982 87.7371 0 63.2013 232.878 -13.5086 99.0834 -0.135086 0.990834 1 0.5 0 1
160 1 24.0175 74.8685 0 24.0175 -4.3975 0 268.858 791.532 127.489 -32.3637 -0.808931 -0.587903 1 0.5 0 1
161 1 0.174688 78.7653 0 0.174688 -0.500732 0 1338.53 -219.333 -106.516 -41.7776 0.617066 -0.786911 1 0.5 0 1
162 1 7.8356 49.9411 0 7.8356 49.9411 0 522.071 -242.075 -92.6209 -133.083 -0.996225 -0.0868063 1 0.5 0 1
163 1 66.0009 44.5351 0 66.0009 44.5351 0 -125.04 416.482 -87.5126 30.5921 0.265326 -0.964159 1 0.5 0 1
164 1 31.3933 49.3715 0 31.3933 49.3715 0 -93.0127 -382.947 5.49596 13.7343 0.849518 -0.527559 1 0.5 0 1
165 1 46.9314 78.9018 0 46.9314 -0.364225 0 191.232 -251.841 -3.33206 -99.8722 -0.0229676 -0.999736 1 0.5 0 1
166 1 19.2474 39.2159 0 19.2474 39.2159 0 -431.598 268.908 -95.4116 29.9437 -0.954116 0.299437 1 0.5 0 1
167 1 59.197 21.8877 0 59.197 21.8877 0 224.589 329.609 -141.045 28.2022 0.997608 0.0691251 1 0.5 0 1
168 1 23.8371 11.6181 0 23.8371 90.8841 0 -147.343 172.623 -52.5989 -82.8965 -0.610884 0.79172 1 0.5 0 1
169 1 29.607 21.2798 0 29.607 100.546 0 520.897 323.028 -60.0104 -8.92478 -0.149832 0.988711 1 0.5 0 1
170 1 69.4259 75.0309 0 69.4259 75.0309 0 -962.294 -1268.88 8.4206 10.5708 0.0367014 0.999326 1 0.5 0 1
171 1 6.80319 31.8312 0 86.0692 31.8312 0 -710.255 -142.059 130.932 81.3511 0.202097 -0.979365 1 0.5 0 1
172 1 11.0997 52.1658 0 11.0997 -27.1002 0 334.969 357.374 -98.6573 16.3323 -0.986573 0.163323 1 0.5 0 1
173 1 53.6581 6.28286 0 53.6581 6.28286 0 -1328.97 392.845 -42.9098 -29.9935 -0.271306 -0.962493 1 0.5 0 1
174 1 10.6774 48.8166 0 10.6774 48.8166 0 1158.94 -39.8344 -25.7368 109.102 -0.716754 0.697326 1 0.5 0 1
175 1 23.0123 2.96539 0 23.0123 2.96539 0 -465.304 98.6137 103.612 35.2044 0.761813 0.647797 1 0.5 0 1
176 1 12.7169 47.3811 0 12.7169 47.3811 0 -522.055 -158.078 82.0564 45.2469 -0.398693 -0.917084 1 0.5 0 1
177 1 27.0191 8.14489 0 27.0191 87.4109 0 19.6157 47.0785 5.02359 97.3263 -0.0742761 0.997238 1 0.5 0 1
178 1 59.4125 24.5985 0 -19.8535 103.864 0 -626.197 319.561 49.3186 158.238 -0.563864 0.825868 1 0.5 0 1
179 1 4.81404 54.168 0 4.81404 -25.098 0 0.396225 -410.56 156.543 21.4832 -0.999834 -0.0181979 1 0.5 0 1
180 1 77.9474 39.7216 0 77.9474 39.7216 0 328.925 240.095 -50.0772 284.614 0.0680607 0.997681 1 0.5 0 1
181 1 53.2874 28.7282 0 53.2874 28.7282 0 106.221 -359.812 79.6203 -112.714 -0.997305 -0.0733735 1 0.5 0 1
182 1 17.9442 28.4207 0 17.9442 107.687 0 -274.434 -275.755 -27.5011 -36.3372 -0.913065 -0.407813 1 0.5 0 1
183 1 51.3364 54.0402 0 51.3364 -25.2258 0 -157.564 -228.628 82.9083 -55.9126 0.829083 -0.559126 1 0.5 0 1
184 1 67.5217 38.7434 0 67.5217 38.7434 0 83.9607 -286.582 69.6108 -2.03754 -0.383525 0.923531 1 0.5 0 1
185 1 30.1563 35.1548 0 30.1563 35.1548 0 -416.262 35.1315 -55.7209 66.5475 -0.984808 0.173645 1 0.5 0 1
186 1 25.7078 56.1351 0 25.7078 56.1351 0 -534.258 278.522 47.1616 -240.886 -0.488165 0.872751 1 0.5 0 1
187 1 67.4874 28.6971 0 -11.7786 107.963 0 -1030.51 -168.197 -16.588 104.408 -0.437703 0.899119 1 0.5 0 1
188 1 9.40489 57.9392 0 88.6709 57.9392 0 -551.264 575.148 -68.0668 3.44453 0.98742 0.158116 1 0.5 0 1
189 1 18.6709 12.3088 0 18.6709 12.3088 0 404.773 -112.294 -105.295 16.1243 0.907227 0.420641 1 0.5 0 1
190 1 74.9873 76.1577 0 -4.27872 76.1577 0 -833.121 -982.271 -91.8565 39.527 -0.918565 0.39527 1 0.5 0 1
191 1 26.3788 0.417173 0 105.645 0.417173 0 1003.95 -614.222 74.7627 66.4119 0.747627 0.664119 1 0.5 0 1
192 1 65.7492 33.7482 0 65.7492 33.7482 0 -1.59371 458.813 270.838 184.262 -0.00124875 -0.999999 1 0.5 0 1
193 1 66.3814 3.53429 0 -12.8846 3.53429 0 549.868 -479.1 -93.8523 -20.624 -0.98605 -0.166452 1 0.5 0 1
194 1 32.7623 69.3956 0 32.7623 69.3956 0 239.817 116.399 247.87 -90.7366 -0.655152 -0.755497 1 0.5 0 1
195 1 54.1506 24.7969 0 54.1506 24.7969 0 -446.176 -218.417 -16.1412 -158.011 0.132382 0.991199 1 0.5 0 1
196 1 63.1252 36.1828 0 63.1252 36.1828 0 621.802 537.739 -108.552 125.901 -0.240761 -0.970584 1 0.5 0 1
197 1 72.335 61.5593 0 -6.93097 61.5593 0 -865.693 424.867 9.7376 -99.5248 0.097376 -0.995248 1 0.5 0 1
198 1 77.2226 43.1805 0 77.2226 43.1805 0 -286.223 12.6508 86.2856 40.0375 -0.86743 -0.497559 1 0.5 0 1
199 1 69.8583 16.8275 0 -9.40769 16.8275 0 1168.67 -341.557 -8.58547 -91.675 -0.493841 -0.869552 1 0.5 0 1
200 1 19.0567 66.3908 0 19.0567 66.3908 0 -495.091 721.481 95.9175 131.977 0.973166 0.230102 1 0.5 0 1
201 1 9.67931 53.0413 0 9.67931 -26.2247 0 250.577 -129.984 -0.359229 -45.1733 -0.966944 0.254988 1 0.5 0 1
202 1 58.0923 78.0939 0 -21.1737 -1.17212 0 199.396 -856.508 32.2287 -106.372 0.519452 -0.8545 1 0.5 0 1
203 1 1.13262 79.1897 0 1.13262 79.1897 0 -317.403 127.271 -38.1667 53.0497 -0.993719 0.111904 1 0.5 0 1
204 1 22.6048 18.1409 0 22.6048 18.1409 0 -107.914 547.005 82.0373 -145.7 0.9362 -0.351467 1 0.5 0 1
205 1 31.2819 61.151 0 31.2819 61.151 0 -47.115 676.167 -2.33863 10.8325 -0.943646 -0.330956 1 0.5 0 1
206 1 78.894 58.302 0 -0.371999 -20.964 0 263.08 375.211 -143.711 -9.30083 0.0567187 -0.99839 1 0.5 0 1
207 1 12.1613 63.2082 0 12.1613 63.2082 0 -217.741 484.257 -47.7212 91.3214 0.610693 0.791868 1 0.5 0 1
208 1 40.8209 53.7019 0 40.8209 53.7019 0 -310.642 -465.468 -37.3671 48.169 -0.764479 -0.644648 1 0.5 0 1
209 1 43.4338 56.1585 0 43.4338 56.1585 0 -98.6912 -730.687 -19.1349 50.3845 -0.414222 0.910176 1 0.5 0 1
210 1 2.53712 75.3157 0 2.53712 75.3157 0 436.191 496.194 -78.2199 -62.3028 -0.782199 -0.623028 1 0.5 0 1
211 1 64.8769 38.2264 0 64.8769 38.2264 0 -394.497 47.6571 -42.8184 -28.5699 0.02325 0.99973 1 0.5 0 1
212 1 29.2099 76.6008 0 108.476 -2.66521 0 363.305 500.155 22.3062 -54.1586 0.963935 -0.266137 1 0.5 0 1
213 1 53.1646 57.6778 0 53.1646 57.6778 0 -23.2117 -787.826 90.0062 30.759 0.896908 0.442216 1 0.5 0 1
214 1 56.2377 22.9729 0 56.2377 102.239 0 270.769 -25.9187 -114.849 261.365 0.969147 0.246483 1 0.5 0 1
215 1 17.3606 70.557 0 17.3606 -8.70899 0 266.392 1013.58 1.11539 158.919 0.877813 0.479003 1 0.5 0 1
216 1 31.4118 39.0896 0 31.4118 118.356 0 117.412 402.398 4.33997 -106.263 -0.232788 0.972527 1 0.5 0 1
217 1 44.2414 2.5753 0 44.2414 2.5753 0 368.275 -184.258 35.072 -65.1335 0.550946 -0.834541 1 0.5 0 1
218 1 39.6819 45.6777 0 39.6819 45.6777 0 -460.416 -156.602 87.5043 13.4064 0.895149 0.445767 1 0.5 0 1
219 1 56.1129 40.3301 0 56.1129 40.3301 0 -40.9824 234.399 55.9313 23.6642 0.869298 -0.494289 1 0.5 0 1
220 1 62.7932 72.021 0 62.7932 -7.24498 0 179.77 -465.585 -39.7268 -148.921 -0.851629 -0.524146 1 0.5 0 1
221 1 37.3225 76.5763 0 37.3225 76.5763 0 148.09 -899.162 63.7841 14.5487 0.869573 0.493804 1 0.5 0 1
222 1 30.6597 48.6942 0 30.6597 -30.5718 0 452.429 -341.161 -85.3366 45.626 0.84921 -0.528055 1 0.5 0 1
223 1 76.9461 35.1857 0 -2.31989 35.1857 0 -879.641 137.977 127.255 58.0595 0.0272254 0.999629 1 0.5 0 1
224 1 67.5419 62.3446 0 -11.7241 62.3446 0 -328.412 345.871 -50.2581 24.6797 0.997427 0.0716871 1 0.5 0 1
225 1 18.8255 53.9826 0 98.0915 -25.2834 0 -333.136 -339.151 96.0898 -27.6904 0.960898 -0.276904 1 0.5 0 1
226 1 32.4251 73.4123 0 32.4251 -5.85372 0 -576.629 860.911 28.2459 -11.643 -0.537137 -0.843495 1 0.5 0 1
227 1 5.22052 33.2855 0 84.4865 33.2855 0 353.724 1019.24 51.037 -22.2575 0.0983796 0.995149 1 0.5 0 1
228 1 70.6732 64.7742 0 -8.59275 64.7742 0 -222.803 -14.0228 4.81258 -40.0238 -0.963012 -0.269458 1 0.5 0 1
229 1 57.8339 33.2244 0 57.8339 33.2244 0 246.7 785.287 -110.592 -148.393 0.652891 0.757452 1 0.5 0 1
230 1 58.66 31.7642 0 58.66 111.03 0 442.549 455.264 144.764 -120.194 -0.594114 0.804381 1 0.5 0 1
231 1 66.04 70.8596 0 66.04 70.8596 0 450.28 355.882 116.327 48.57 0.863353 0.504601 1 0.5 0 1
232 1 49.1372 39.837 0 49.1372 -39.429 0 655.655 -17.3682 58.2558 -69.5121 0.68657 -0.727063 1 0.5 0 1
233 1 10.3121 42.4379 0 10.3121 42.4379 0 -252.445 328.182 4.03958 -55.0973 -0.849779 -0.527139 1 0.5 0 1
234 1 29.1815 64.2291 0 29.1815 -15.0369 0 517.829 186.308 131.744 18.0807 -0.943245 0.332097 1 0.5 0 1
235 1 23.0718 63.3262 0 23.0718 63.3262 0 379.983 219.291 57.2094 38.5795 0.645588 0.763686 1 0.5 0 1
236 1 9.7423 74.7359 0 89.0083 74.7359 0 362.006 136.728 95.8882 -28.3804 0.958882 -0.283804 1 0.5 0 1
237 1 53.5042 27.7118 0 53.5042 27.7118 0 78.2548 271.315 6.10735 72.7425 0.65891 0.752221 1 0.5 0 1
238 1 49.9858 70.0257 0 49.9858 70.0257 0 -302.285 35.2711 70.267 59.5582 0.82427 0.566197 1 0.5 0 1
239 1 7.5991 39.5336 0 86.8651 39.5336 0 -146.816 -133.208 -3.81882 80.939 0.230751 0.973013 1 0.5 0 1
240 1 28.9663 33.7951 0 28.9663 33.7951 0 -96.3153 -816.943 67.7975 -26.3441 0.891755 -0.452519 1 0.5 0 1
241 1 48.7546 43.5637 0 48.7546 43.5637 0 739.761 -344.637 -82.0512 60.4564 0.000564919 -1 1 0.5 0 1
242 1 72.2736 70.997 0 72.2736 -8.26899 0 276.48 -628.282 -33.8399 45.5218 0.914106 -0.405475 1 0.5 0 1
243 1 71.7466 72.5531 0 -7.51939 72.5531 0 584.89 -41.9827 -23.205 82.7502 -0.538116 0.842871 1 0.5 0 1
244 1 40.7197 51.6986 0 40.7197 51.6986 0 -627.168 -42.2115 38.97 38.9855 0.0363857 0.999338 1 0.5 0 1
245 1 58.0649 44.3053 0 58.0649 44.3053 0 -662.14 501.536 238.142 -30.3756 0.551617 -0.834097 1 0.5 0 1
246 1 46.6776 39.2108 0 46.6776 39.2108 0 -58.2756 -322.245 93.2812 64.1904 0.999378 0.0352763 1 0.5 0 1
247 1 68.4398 50.9557 0 68.4398 -28.3103 0 -466.103 -751.621 72.492 36.7188 -0.898184 -0.43962 1 0.5 0 1
248 1 54.5551 13.5536 0 -24.7109 92.8196 0 -724.664 -464.43 -59.7692 93.8205 -0.193573 0.981086 1 0.5 0 1
249 1 62.3709 17.6247 0 62.3709 17.6247 0 -929.47 -143.694 107.883 -48.1816 0.979641 0.200757 1 0.5 0 1
250 1 15.6428 57.1646 0 94.9088 57.1646 0 399.376 212.569 -24.4791 80.3507 0.648524 0.761194 1 0.5 0 1
251 1 44.7014 43.1921 0 44.7014 122.458 0 52.1417 515.562 -12.0895 100.149 -0.0344183 0.999408 1 0.5 0 1
252 1 21.7494 64.446 0 21.7494 64.446 0 76.3609 552.792 189.412 -67.4794 0.16048 0.987039 1 0.5 0 1
253 1 26.8317 57.8646 0 26.8317 57.8646 0 -205.808 -55.4208 -69.5938 119.915 0.614283 0.789086 1 0.5 0 1
254 1 46.3906 8.10721 0 46.3906 87.3732 0 51.6772 971.411 -13.7756 80.768 -0.124257 0.99225 1 0.5 0 1
255 1 6.72095 30.8161 0 85.9869 110.082 0 -141.576 -324.165 70.1772 35.8245 -0.218337 0.975873 1 0.5 0 1
256 1 72.82 39.7974 0 -6.44604 39.7974 0 -191.881 -275.858 -117.807 -53.4052 0.395723 -0.91837 1 0.5 0 1
257 1 11.8087 28.3539 0 11.8087 107.62 0 -206.154 -153.516 26.7817 39.3197 -0.665083 0.746769 1 0.5 0 1
258 1 42.8127 65.6819 0 42.8127 -13.5841 0 -518.201 -474.427 -0.189949 -99.9998 -0.00189949 -0.999998 1 0.5 0 1
259 1 17.7035 25.7459 0 96.9695 25.7459 0 -13.5218 625.995 5.92363 99.8244 0.0592363 0.998244 1 0.5 0 1
260 1 17.0526 29.0481 0 96.3186 29.0481 0 -194.774 1005.72 49.0211 -7.62461 0.618449 -0.785825 1 0.5 0 1
261 1 9.44351 4.22768 0 9.44351 4.22768 0 -895.195 -323.433 -9.14644 -47.8683 -0.463628 -0.88603 1 0.5 0 1
262 1 59.7957 1.32115 0 139.062 1.32115 0 -50.0053 -689.67 93.8241 -34.5984 0.938241 -0.345984 1 0.5 0 1
263 1 48.5391 73.1174 0 -30.7269 -6.14862 0 570.42 -224.831 -99.6277 -8.62133 -0.996277 -0.0862133 1 0.5 0 1
264 1 17.249 31.2067 0 96.515 31.2067 0 234.602 -171.067 97.8086 -20.82 0.978086 -0.2082 1 0.5 0 1
265 1 25.3642 6.53919 0 25.3642 85.8052 0 691.8 718.384 65.5069 75.0175 0.652883 0.757458 1 0.5 0 1
266 1 59.0461 47.9082 0 59.0461 47.9082 0 -341.478 -234.953 30.8463 -54.8715 0.99996 0.00891161 1 0.5 0 1
267 1 10.8542 79.1801 0 10.8542 -0.0858819 0 154.867 -139.126 -68.7684 -32.2095 -0.767022 -0.64162 1 0.5 0 1
268 1 69.2272 63.4102 0 69.2272 63.4102 0 -489.166 -90.094 -119.672 -159.208 -0.207391 -0.978258 1 0.5 0 1
269 1 54.1278 14.9026 0 133.394 14.9026 0 110.736 1410.71 -44.7498 43.3353 0.382269 0.924051 1 0.5 0 1
270 1 39.7059 75.645 0 118.972 -3.62102 0 -280.921 -110.051 68.4796 -72.8735 0.684796 -0.728735 1 0.5 0 1
271 1 51.37 29.335 0 51.37 29.335 0 -504.817 299.831 51.5654 -229.127 0.7676 -0.640929 1 0.5 0 1
272 1 56.8594 32.6866 0 56.8594 32.6866 0 -396.519 649.47 12.5347 -191.714 0.991288 -0.131709 1 0.5 0 1
273 1 61.5922 45.0668 0 61.5922 45.0668 0 -558.698 79.3695 -45.9191 153.255 0.445529 -0.895267 1 0.5 0 1
274 1 29.1948 57.3789 0 29.1948 -21.8871 0 126.038 -453.088 -141.849 -16.1751 -0.980751 -0.195265 1 0.5 0 1
275 1 74.8558 1.75006 0 74.8558 1.75006 0 182.722 554.81 98.9816 -14.235 0.989816 -0.14235 1 0.5 0 1
276 1 61.3947 40.1133 0 61.3947 40.1133 0 -530.502 249.744 188.528 128.643 0.91985 0.392271 1 0.5 0 1
277 1 46.6016 34.3844 0 -32.6644 34.3844 0 -47.3336 -510.012 139.796 -0.419734 -0.480155 -0.877184 1 0.5 0 1
278 1 75.7867 9.59945 0 -3.47933 88.8655 0 -385.036 -523.153 -71.0956 46.352 -0.779485 0.626421 1 0.5 0 1
279 1 12.9322 30.1473 0 92.1982 30.1473 0 -201.512 -245.784 18.1011 -39.0741 0.967072 -0.254502 1 0.5 0 1
280 1 60.8461 71.7574 0 60.8461 -7.50857 0 -308.044 282.256 -104.981 86.2962 -0.438027 -0.898962 1 0.5 0 1
281 1 68.4344 53.9824 0 68.4344 53.9824 0 -391.051 47.5664 29.7613 52.5552 0.875105 -0.483933 1 0.5 0 1
282 1 43.4431 59.276 0 43.4431 -19.99 0 -370.412 2.54369 27.4265 -96.1654 0.274265 -0.961654 1 0.5 0 1
283 1 74.8315 27.717 0 -4.4345 106.983 0 507.015 1107.83 47.3049 23.5069 0.543178 0.839617 1 0.5 0 1
284 1 64.1534 17.1439 0 -15.1126 96.4099 0 31.9188 388.2 91.2427 110.396 -0.0407035 0.999171 1 0.5 0 1
285 1 71.638 31.2821 0 71.638 31.2821 0 307.333 -406.401 235.736 -100.98 0.967862 0.25148 1 0.5 0 1