ITEM: TIMESTEP
380000
ITEM: NUMBER OF ATOMS
4000
ITEM: BOX BOUNDS pp pp pp
0.0000000000000000e+00 7.9266000000000005e+01
0.0000000000000000e+00 7.9266000000000005e+01
-5.0000000000000000e-01 5.0000000000000000e-01
ITEM: ATOMS id type x y z xu yu zu vx vy fx fy mux muy mu radius omegaz mass
1 1 2.96708 64.347 0 82.2331 64.347 0 52.9026 -1103.21 69.2415 -14.3576 -0.830855 -0.556488 1 0.5 0 1
2 1 61.4909 19.0337 0 61.4909 19.0337 0 -71.6103 -447.467 14.7285 19.3828 0.743632 -0.668589 1 0.5 0 1
3 1 16.6139 35.9761 0 16.6139 -43.2899 0 -297.063 370.767 93.6022 26.6197 0.992488 -0.122346 1 0.5 0 1
4 1 3.7628 15.1334 0 3.7628 15.1334 0 558.192 648.781 -110.102 27.7904 -0.951126 -0.308802 1 0.5 0 1
5 1 2.64015 32.4301 0 2.64015 32.4301 0 669.915 551.606 -28.6511 82.9062 -0.92094 0.389703 1 0.5 0 1
6 1 69.4529 30.3541 0 -9.81309 30.3541 0 449.941 -337.575 -231.095 68.407 0.216687 0.976241 1 0.5 0 1
7 1 66.8039 49.8041 0 66.8039 49.8041 0 -234.744 533.293 -118.588 40.5525 0.409062 0.912507 1 0.5 0 1
8 1 16.1767 38.6247 0 16.1767 -40.6413 0 701.8 1233.59 -207.251 -179.679 -0.668288 -0.743903 1 0.5 0 1
9 1 68.0576 28.1153 0 68.0576 28.1153 0 317.81 12.9001 -111.41 -421.949 -0.402594 -0.915379 1 0.5 0 1
10 1 20.5944 55.7438 0 20.5944 55.7438 0 -37.8198 -323.931 18.3269 -2.9044 -0.982799 -0.184681 1 0.5 0 1
11 1 76.3355 7.52828 0 -82.1965 7.52828 0 417.27 -81.9914 -64.1162 38.7188 -0.982216 0.187755 1 0.5 0 1
12 1 0.19249 23.7251 0 79.4585 102.991 0 -616.98 973.388 327.967 -104.84 -0.0387684 -0.999248 1 0.5 0 1
13 1 76.7215 68.9857 0 76.7215 -10.2803 0 -247.873 28.8425 88.088 206.342 -0.128329 0.991732 1 0.5 0 1
14 1 19.0697 43.184 0 -139.462 43.184 0 125.436 -384.182 14.4297 14.6755 -0.894167 -0.447734 1 0.5 0 1
15 1 10.5047 34.8056 0 10.5047 34.8056 0 -385.66 392.176 -27.9886 -8.59217 -0.997629 0.0688286 1 0.5 0 1
16 1 15.69 50.6575 0 -63.576 -28.6085 0 236.523 161.07 -9.40974 -65.2282 -0.983215 0.182449 1 0.5 0 1
17 1 40.3966 39.2457 0 119.663 118.512 0 -290.093 162.655 -17.2045 75.0367 0.934572 -0.355774 1 0.5 0 1
18 1 6.29398 5.11849 0 6.29398 5.11849 0 68.6021 -1146.35 -53.0351 -84.7778 -0.530351 -0.847778 1 0.5 0 1
19 1 4.39136 42.0252 0 4.39136 42.0252 0 -843.09 -529.08 -65.5423 170.564 -0.250215 0.96819 1 0.5 0 1
20 1 14.7091 57.7304 0 14.7091 57.7304 0 -73.5738 141.394 42.5006 276.005 0.993487 -0.113947 1 0.5 0 1
21 1 3.49983 29.18 0 3.49983 29.18 0 -222.228 207.281 -65.6535 80.2498 0.21506 0.976601 1 0.5 0 1
22 1 1.66413 22.4049 0 80.9301 22.4049 0 364.14 332.088 37.9543 87.9599 -0.980653 0.195753 1 0.5 0 1
23 1 38.8751 45.167 0 118.141 45.167 0 36.9928 -155.591 -59.4049 -133.193 0.83628 -0.548302 1 0.5 0 1
24 1 65.9219 57.4281 0 65.9219 -21.8379 0 530.443 851.124 145.486 -62.4232 0.185207 -0.9827 1 0.5 0 1
25 1 46.8388 28.6226 0 -32.4272 -50.6434 0 -845.633 338.715 75.1905 -90.0665 0.150505 -0.988609 1 0.5 0 1
26 1 51.6171 57.5681 0 51.6171 -100.964 0 -504.567 -539.527 339.565 -28.4238 0.953296 0.302037 1 0.5 0 1
27 1 74.1109 20.1366 0 -5.1551 99.4026 0 -43.2763 165.491 -29.7326 -41.8457 -0.846505 -0.532382 1 0.5 0 1
28 1 42.8994 3.61618 0 42.8994 82.8822 0 214.446 104.852 -74.6916 -66.4919 -0.746916 -0.664919 1 0.5 0 1
29 1 74.0777 38.9881 0 -5.18829 38.9881 0 -283.864 976.492 42.1396 -78.9585 -0.224998 -0.974359 1 0.5 0 1
30 1 69.0048 11.8105 0 69.0048 91.0765 0 116.451 374.772 48.2873 114.153 0.801256 0.598321 1 0.5 0 1
31 1 74.1417 27.3381 0 -5.12432 27.3381 0 400.754 -192.814 -31.5262 87.8086 -0.912263 -0.409604 1 0.5 0 1
32 1 2.97996 16.5123 0 2.97996 16.5123 0 -115.972 245.636 -93.4636 -37.7934 0.281889 0.959447 1 0.5 0 1
33 1 64.4071 58.6872 0 64.4071 -20.5788 0 -553.81 1183.06 78.9111 -39.5271 -0.447753 -0.894157 1 0.5 0 1
34 1 6.15029 45.2945 0 85.4163 45.2945 0 -830.46 232.801 -253.504 76.6009 0.552108 0.833773 1 0.5 0 1
35 1 42.6349 35.0862 0 -36.6311 35.0862 0 273.684 -9.87972 -2.86761 -36.4939 0.99014 -0.140079 1 0.5 0 1
36 1 59.781 58.2063 0 59.781 -21.0597 0 197.841 528.296 69.383 -126.588 -0.711924 0.702257 1 0.5 0 1
37 1 69.5523 42.7903 0 69.5523 42.7903 0 -395.702 -608.089 225.416 301.888 -0.871349 0.490663 1 0.5 0 1
38 1 74.6228 12.8097 0 153.889 92.0757 0 -227.188 -117.947 96.0704 59.8082 0.96405 -0.265719 1 0.5 0 1
39 1 8.32931 23.3559 0 87.5953 -55.9101 0 -250.386 81.3061 -148.361 43.4083 -0.42454 -0.905409 1 0.5 0 1
40 1 56.0111 18.9631 0 -23.2549 98.2291 0 776.047 -97.8551 -107.452 -34.6144 -0.021886 0.99976 1 0.5 0 1
41 1 68.5213 52.9238 0 68.5213 52.9238 0 606.534 796.01 -116.2 -176.056 0.984524 -0.175249 1 0.5 0 1
42 1 74.6248 60.2829 0 -4.64116 60.2829 0 -317.265 589.523 -30.1473 -89.1322 -0.0555012 -0.998459 1 0.5 0 1
43 1 0.344292 16.5232 0 -78.9217 95.7892 0 67.3251 220.87 -61.5649 -52.5969 -0.971032 -0.23895 1 0.5 0 1
44 1 65.2921 21.5004 0 65.2921 100.766 0 718.117 761.138 -30.0146 -79.3427 -0.261678 0.965155 1 0.5 0 1
45 1 9.21264 68.4634 0 9.21264 -90.0686 0 -930.147 -203.68 81.9069 3.75081 -0.519551 -0.854439 1 0.5 0 1
46 1 6.98012 41.9344 0 6.98012 41.9344 0 171.518 85.8837 -92.2177 50.6898 -0.757474 0.652865 1 0.5 0 1
47 1 57.8775 61.1608 0 57.8775 -18.1052 0 -60.9724 -719.063 96.1333 210.633 -0.912521 -0.40903 1 0.5 0 1
48 1 11.9641 46.8283 0 11.9641 46.8283 0 144.369 44.5893 345.386 235.281 -0.261012 -0.965335 1 0.5 0 1
49 1 11.1709 78.8035 0 11.1709 78.8035 0 89.7491 -9.01137 18.4277 -98.2874 0.184277 -0.982874 1 0.5 0 1
50 1 59.646 14.1465 0 -19.62 14.1465 0 -949.767 818.685 -21.916 100.108 -0.282014 0.95941 1 0.5 0 1
51 1 63.9388 73.4197 0 -94.5932 -5.84626 0 464.014 464.19 89.1009 -20.6678 -0.578949 -0.815363 1 0.5 0 1
52 1 3.93495 33.7624 0 83.201 33.7624 0 8.30313 779.817 -27.7047 -77.341 0.376053 0.926598 1 0.5 0 1
53 1 12.3657 55.1382 0 12.3657 134.404 0 -199.535 -193.808 -18.9019 100 -0.99875 -0.049987 1 0.5 0 1
54 1 52.4917 29.7888 0 52.4917 29.7888 0 439.274 -131.705 -55.6426 -18.3707 -0.836461 0.548027 1 0.5 0 1
55 1 18.3686 43.9201 0 97.6346 123.186 0 653.13 940.782 -222.767 25.4541 -0.981482 -0.191554 1 0.5 0 1
56 1 41.9157 37.9642 0 41.9157 37.9642 0 576.343 16.4219 -14.8088 138.596 0.722004 0.691888 1 0.5 0 1
57 1 12.2861 24.3865 0 12.2861 103.653 0 310.869 991.886 -126.881 -100.796 -0.674575 0.738206 1 0.5 0 1
58 1 67.3025 28.7501 0 -11.9635 28.7501 0 896.894 465.79 -75.364 -140.333 -0.998912 0.0466392 1 0.5 0 1
59 1 51.5792 33.9973 0 51.5792 33.9973 0 429.305 -315.315 -190.25 102.957 0.763329 -0.64601 1 0.5 0 1
60 1 55.7501 40.9599 0 55.7501 40.9599 0 -258.234 95.2153 251.743 20.3054 0.953527 0.301309 1 0.5 0 1
61 1 58.3825 44.4732 0 58.3825 44.4732 0 248.043 -539.401 10.4773 -102.619 0.984023 -0.178044 1 0.5 0 1
62 1 57.1674 20.3331 0 136.433 20.3331 0 -97.4595 254.051 -28.353 -177.846 0.899128 0.437685 1 0.5 0 1
63 1 12.5861 60.8348 0 -66.6799 -18.4312 0 575.952 -283.297 40.8709 -15.0613 0.72187 0.692029 1 0.5 0 1
64 1 45.4138 26.1661 0 124.68 105.432 0 46.4051 54.7018 -117.633 35.1797 -0.875376 0.483443 1 0.5 0 1
65 1 42.6264 29.9589 0 201.158 109.225 0 175.367 708.529 3.53941 -168.728 0.954436 0.298417 1 0.5 0 1
66 1 13.3662 45.354 0 92.6322 124.62 0 507.126 754.927 -40.2537 2.29497 0.999913 0.0132067 1 0.5 0 1
67 1 53.5504 42.8985 0 53.5504 42.8985 0 -72.9121 -162.117 42.7762 -50.9586 -0.806983 -0.590574 1 0.5 0 1
68 1 14.9084 41.1593 0 14.9084 41.1593 0 -366.414 1003.28 32.3906 -7.51457 -0.000141055 -1 1 0.5 0 1
69 1 53.6592 21.0497 0 53.6592 21.0497 0 238.913 -315.136 11.3194 2.06483 0.986591 0.16321 1 0.5 0 1
70 1 47.8731 37.2487 0 47.8731 116.515 0 -81.8887 -419.011 96.7239 -150.097 0.998787 0.049248 1 0.5 0 1
71 1 51.9028 72.6111 0 131.169 -6.65492 0 -851.353 966.994 92.617 37.7105 0.92617 0.377105 1 0.5 0 1
72 1 4.66298 57.3332 0 4.66298 57.3332 0 336.096 103.53 -11.3417 -24.9913 -0.844524 -0.535517 1 0.5 0 1
73 1 2.62196 13.5784 0 2.62196 13.5784 0 753.764 -561.582 15.6422 -95.1512 -0.683463 0.729985 1 0.5 0 1
74 1 57.4851 22.3219 0 57.4851 101.588 0 -808.443 584.444 197.586 119.181 0.969101 0.246665 1 0.5 0 1
75 1 75.767 38.6629 0 -3.49896 38.6629 0 553.015 258.148 -134.369 124.176 0.864798 0.502121 1 0.5 0 1
76 1 46.8911 22.551 0 -32.3749 22.551 0 -345.482 -481.525 -0.0708972 47.2352 -0.758399 0.651791 1 0.5 0 1
77 1 78.2666 34.9945 0 -0.999369 34.9945 0 255.008 767.065 309.651 -146.267 0.6434 0.76553 1 0.5 0 1
78 1 60.4211 17.6855 0 60.4211 96.9515 0 -19.9683 1039.31 -136.271 -75.7634 0.965629 -0.259924 1 0.5 0 1
79 1 44.8514 56.5932 0 -34.4146 56.5932 0 -297.555 871.921 -60.6311 -89.203 0.367425 -0.930053 1 0.5 0 1
80 1 0.23775 27.285 0 0.23775 -51.981 0 -180.796 -748.826 11.057 32.7024 -0.919204 -0.393781 1 0.5 0 1
81 1 47.1486 34.2173 0 126.415 34.2173 0 747.974 114.013 209.628 -20.7349 0.947094 -0.320957 1 0.5 0 1
82 1 1.02275 39.1298 0 1.02275 39.1298 0 -165.405 70.5938 81.9324 146.961 0.92889 0.370355 1 0.5 0 1
83 1 41.3535 39.6138 0 120.619 118.88 0 -465.196 379.632 -13.7082 -27.9417 -0.322481 0.946576 1 0.5 0 1
84 1 76.4171 45.1208 0 -2.84891 45.1208 0 741.878 -16.0263 -3.11188 1.74833 -0.897254 -0.441515 1 0.5 0 1
85 1 28.4314 20.3252 0 28.4314 20.3252 0 -480.421 -93.9232 -88.7898 -46.0041 -0.887898 -0.460041 1 0.5 0 1
86 1 10.9743 40.331 0 10.9743 40.331 0 1145.11 -123.993 40.956 -233.969 -0.73454 0.678566 1 0.5 0 1
87 1 11.501 42.208 0 11.501 42.208 0 406.112 616.446 -11.2017 -24.1719 -0.995061 -0.0992675 1 0.5 0 1
88 1 16.7794 63.1365 0 16.7794 -16.1295 0 395.979 676.054 220.52 -27.3004 -0.480602 0.876939 1 0.5 0 1
89 1 22.317 55.2805 0 22.317 -23.9855 0 -311.755 -552.255 37.5267 -92.5405 -0.92643 -0.376467 1 0.5 0 1
90 1 4.27961 38.3593 0 4.27961 38.3593 0 -141.079 -190.468 -1.77535 150.115 -0.449328 0.893367 1 0.5 0 1
91 1 15.8937 59.0872 0 15.8937 -20.1788 0 -18.0747 148.785 22.2862 5.87084 -0.17055 -0.985349 1 0.5 0 1
92 1 3.273 55.0683 0 3.273 55.0683 0 -315.79 690.301 -51.5299 -71.5012 0.95971 0.280994 1 0.5 0 1
93 1 1.7537 45.7008 0 1.7537 45.7008 0 -209.361 -223.553 -86.0304 121.094 -0.375515 0.926816 1 0.5 0 1
94 1 70.0594 36.7511 0 70.0594 36.7511 0 232.83 613.242 -165.991 -107.362 0.952785 -0.303646 1 0.5 0 1
95 1 66.5711 48.8172 0 66.5711 48.8172 0 33.5007 -523.604 -93.3131 300.62 -0.968062 0.250713 1 0.5 0 1
96 1 53.3075 41.9343 0 53.3075 41.9343 0 -662.849 281.391 50.2882 -66.7191 -0.0598284 -0.998209 1 0.5 0 1
97 1 49.9868 17.0769 0 49.9868 -62.1891 0 279.436 -313.903 -21.0725 -82.8705 0.591297 -0.806454 1 0.5 0 1
98 1 20.042 49.9598 0 20.042 49.9598 0 -276.57 544.399 -114.422 -26.5029 -0.904235 -0.427035 1 0.5 0 1
99 1 44.8054 39.0074 0 44.8054 -40.2586 0 -234.009 284.202 21.2342 4.74475 0.79731 0.60357 1 0.5 0 1
100 1 72.5713 43.8042 0 72.5713 43.8042 0 251.898 901.026 -13.2272 -2.58124 0.737383 -0.675475 1 0.5 0 1
101 1 49.0357 46.8678 0 49.0357 -32.3982 0 93.4279 156.981 -112.728 86.5008 -0.71282 0.701347 1 0.5 0 1
102 1 78.5986 43.1384 0 -0.667351 43.1384 0 224.566 672.665 -61.7083 21.0153 -0.834293 -0.551321 1 0.5 0 1
103 1 49.217 69.93 0 -109.315 149.196 0 476.761 -97.1741 -87.0541 -49.2096 -0.870541 -0.492096 1 0.5 0 1
104 1 52.8391 43.557 0 52.8391 122.823 0 465.683 755.23 -172.332 -87.1972 0.910221 0.414122 1 0.5 0 1
105 1 15.9902 25.8077 0 15.9902 25.8077 0 346.755 -422.874 -29.8181 -67.7172 -0.155156 0.98789 1 0.5 0 1
106 1 39.2916 52.8528 0 39.2916 -26.4132 0 -820.761 308.357 -114.181 57.0481 0.17014 -0.98542 1 0.5 0 1
107 1 61.2348 37.3148 0 61.2348 37.3148 0 -43.4615 -501.579 -202.87 81.9519 0.649218 -0.760602 1 0.5 0 1
108 1 78.8024 36.9143 0 -0.46364 116.18 0 -67.726 13.854 26.3583 34.3465 0.325509 -0.945539 1 0.5 0 1
109 1 11.2866 24.1701 0 -67.9794 103.436 0 27.6058 73.5334 146.934 -108.08 0.276941 0.960887 1 0.5 0 1
110 1 50.0207 30.6927 0 50.0207 30.6927 0 228.164 8.5781 -49.4076 -75.7971 -0.54151 0.840695 1 0.5 0 1
111 1 74.1635 15.5167 0 74.1635 94.7827 0 -133.058 -404.169 -122.891 56.9316 0.478188 0.878257 1 0.5 0 1
112 1 10.8886 49.3052 0 10.8886 49.3052 0 -40.0712 92.4055 -120.8 119.082 0.804132 0.594451 1 0.5 0 1
113 1 12.9934 27.2958 0 -66.2726 106.562 0 -123.173 192.05 86.1227 85.6655 -0.00681167 0.999977 1 0.5 0 1
114 1 53.595 54.4644 0 53.595 54.4644 0 -404.799 187.255 -106.353 49.5441 0.999997 -0.00224604 1 0.5 0 1
115 1 39.6058 44.5021 0 39.6058 -34.7639 0 18.6522 570.598 79.5472 -92.353 0.452373 -0.891829 1 0.5 0 1
116 1 62.3099 77.1995 0 62.3099 -81.3325 0 -236.086 -87.6455 -11.261 -34.5196 0.269526 -0.962993 1 0.5 0 1
117 1 63.2498 68.2052 0 63.2498 -11.0608 0 -121.371 -1246.28 107.362 47.3321 0.68183 -0.73151 1 0.5 0 1
118 1 54.0291 41.2664 0 54.0291 41.2664 0 -160.159 -336.424 75.9561 55.0636 0.206056 -0.97854 1 0.5 0 1
119 1 77.9929 2.10915 0 157.259 2.10915 0 251.452 863.082 61.9497 31.4153 0.999246 0.0388316 1 0.5 0 1
120 1 45.4925 51.2063 0 124.759 -28.0597 0 578.372 -182.794 -116.292 -9.87501 -0.995241 0.0974424 1 0.5 0 1
121 1 43.5475 26.24 0 -114.984 26.24 0 -62.0916 46.0068 69.6566 -52.8935 0.816568 -0.577249 1 0.5 0 1
122 1 21.7108 42.1474 0 21.7108 121.413 0 -414.297 578.945 -27.3239 -98.2632 -0.252302 0.967648 1 0.5 0 1
123 1 74.215 31.7864 0 -5.05105 31.7864 0 -386.226 45.1733 127.597 84.2611 -0.973766 0.22755 1 0.5 0 1
124 1 19.4436 63.2946 0 -59.8224 -15.9714 0 -193.299 441.9 -2.40678 -19.5756 -0.957439 -0.288635 1 0.5 0 1
125 1 65.591 29.08 0 65.591 29.08 0 890.697 750.341 156.782 59.7344 -0.958949 -0.283578 1 0.5 0 1
126 1 8.85031 35.2094 0 88.1163 114.475 0 332.392 -772.117 -158.77 97.4284 0.950655 -0.310249 1 0.5 0 1
127 1 57.0415 30.626 0 57.0415 109.892 0 -185.368 763.194 -8.05578 35.8984 -0.346869 0.937913 1 0.5 0 1
128 1 2.70826 26.2601 0 -76.5577 26.2601 0 445.267 306.84 -147.153 179.12 -0.861279 -0.508132 1 0.5 0 1
129 1 67.6073 57.0915 0 67.6073 -22.1745 0 -619.905 -332.309 35.0661 -217.935 -0.983079 0.183183 1 0.5 0 1
130 1 73.7869 56.5034 0 73.7869 -22.7626 0 -128.434 -436.671 -148.637 27.0082 -0.999879 -0.0155765 1 0.5 0 1
131 1 1.63384 72.4311 0 1.63384 72.4311 0 -212.201 -282 -81.426 6.73212 0.313896 -0.949457 1 0.5 0 1
132 1 59.1055 32.2642 0 -20.1605 111.53 0 -4.95035 233.529 73.1724 -130.785 0.954107 -0.299465 1 0.5 0 1
133 1 18.0363 49.4554 0 18.0363 128.721 0 433.322 217.915 -8.77729 -1.77568 -0.761828 -0.64778 1 0.5 0 1
134 1 12.1834 37.9322 0 12.1834 37.9322 0 -127.568 -469.735 90.0332 -25.7337 -0.416241 -0.909255 1 0.5 0 1
135 1 15.8191 54.4192 0 15.8191 133.685 0 -16.7617 -399.23 -64.8632 58.8595 0.4396 0.898194 1 0.5 0 1
136 1 28.932 52.5158 0 108.198 131.782 0 151.779 -129.875 13.4172 100.76 -0.223537 0.974696 1 0.5 0 1
137 1 39.0528 51.8154 0 118.319 51.8154 0 -522.935 -261.052 -23.7664 18.1709 0.0525441 -0.998619 1 0.5 0 1
138 1 47.4809 51.8212 0 -31.7851 -27.4448 0 65.4029 -331.318 154.906 35.9618 0.68813 0.725588 1 0.5 0 1
139 1 43.7238 42.3294 0 43.7238 -36.9366 0 -523.313 -409.332 -72.7372 0.319273 0.88229 -0.470706 1 0.5 0 1
140 1 1.65882 13.2084 0 1.65882 13.2084 0 -541.506 -419.134 -61.0439 -38.9583 -0.345913 0.938267 1 0.5 0 1
141 1 10.0753 57.2186 0 10.0753 57.2186 0 -8.83719 -425.942 96.8205 -38.6409 0.970041 -0.242942 1 0.5 0 1
142 1 16.625 30.0439 0 -62.641 109.31 0 -171.047 -687.198 42.7328 30.2607 -0.683273 0.730163 1 0.5 0 1
143 1 10.7915 35.7662 0 10.7915 115.032 0 -235.112 -92.3475 -118.599 -25.5364 0.347978 0.937503 1 0.5 0 1
144 1 21.1176 35.3796 0 21.1176 35.3796 0 -633.302 -350.122 -50.6325 -31.8874 -0.974361 0.224989 1 0.5 0 1
145 1 10.9135 67.0971 0 90.1795 67.0971 0 -494.915 210.354 -37.0097 -67.6482 -0.226439 -0.974025 1 0.5 0 1
146 1 60.1333 62.7085 0 60.1333 -16.5575 0 -315.832 -438.562 -81.6342 -104.528 0.431776 -0.901981 1 0.5 0 1
147 1 0.190982 69.1349 0 79.457 -10.1311 0 749.362 -139.95 75.9059 -74.1606 -0.726607 0.687054 1 0.5 0 1
148 1 50.8726 58.3006 0 130.139 58.3006 0 496.314 620.717 -130.46 -12.9172 -0.672999 0.739644 1 0.5 0 1
149 1 71.5532 31.915 0 71.5532 111.181 0 113.126 132.31 31.5974 -112.487 -0.726047 0.687646 1 0.5 0 1
150 1 66.4269 36.4277 0 -12.8391 36.4277 0 -253.744 461.746 -56.7144 -107.708 0.505574 0.862783 1 0.5 0 1
151 1 3.70542 57.0022 0 82.9714 -22.2638 0 173.623 -69.7526 48.3684 25.3155 -0.224714 -0.974425 1 0.5 0 1
152 1 63.5125 65.5802 0 63.5125 65.5802 0 49.3914 244.973 -30.5891 35.8711 0.478699 -0.877979 1 0.5 0 1
153 1 76.4359 60.06 0 76.4359 60.06 0 740.718 842.743 -133.759 62.198 0.668147 -0.74403 1 0.5 0 1
154 1 2.81375 49.6012 0 2.81375 49.6012 0 -652.939 -1011.47 98.9189 21.0583 0.498224 0.867048 1 0.5 0 1
155 1 69.9277 66.8801 0 -88.6043 -12.3859 0 522.301 -79.3641 4.74359 211.777 0.753776 0.657131 1 0.5 0 1
156 1 73.7073 48.5252 0 73.7073 48.5252 0 163.182 -375.672 -248.516 127.509 -0.612414 -0.790537 1 0.5 0 1
157 1 5.49636 29.7696 0 5.49636 29.7696 0 8.29776 362.676 -24.6772 81.5217 0.353671 -0.93537 1 0.5 0 1
158 1 67.0787 39.2628 0 -12.1873 39.2628 0 360.571 -296.793 -22.1671 167.518 0.572873 -0.819644 1 0.5 0 1
159 1 1.29303 9.95885 0 1.29303 89.2248 0 158.665 -700.209 -64.8279 -25.378 -0.739585 0.673063 1 0.5 0 1
160 1 43.8754 12.1632 0 43.8754 12.1632 0 318.135 437.528 67.0095 74.2275 0.670095 0.742275 1 0.5 0 1
161 1 44.5355 26.6694 0 44.5355 -52.5966 0 206.973 -316.591 -38.0541 -34.1235 -0.666055 -0.745903 1 0.5 0 1
162 1 6.24893 52.3819 0 6.24893 52.3819 0 526.909 -206.872 42.3468 -5.49182 -0.164784 -0.98633 1 0.5 0 1
163 1 63.1816 49.494 0 63.1816 49.494 0 -592.48 -328.987 52.7577 151.924 -0.0399415 0.999202 1 0.5 0 1
164 1 57.7215 63.7801 0 57.7215 -15.4859 0 -42.427 -830.032 260.956 311.556 0.806892 -0.590699 1 0.5 0 1
165 1 36.6912 49.7459 0 36.6912 49.7459 0 318.674 70.9993 36.1093 -11.7351 0.16609 0.986111 1 0.5 0 1
166 1 10.4497 44.6708 0 10.4497 44.6708 0 60.3219 396.382 -101.332 -128.007 -0.500201 0.86591 1 0.5 0 1
167 1 64.8818 29.7341 0 64.8818 29.7341 0 -531.232 -1156.91 -71.1954 46.2708 0.871198 -0.490933 1 0.5 0 1
168 1 12.7476 71.8263 0 -66.5184 71.8263 0 310.202 593.169 14.7116 -100.596 -0.237248 -0.971449 1 0.5 0 1
169 1 20.4215 58.5104 0 -58.8445 137.776 0 628.333 16.8194 -5.42331 -44.0672 -0.987909 0.155037 1 0.5 0 1
170 1 16.7886 54.7051 0 96.0546 133.971 0 -185.644 175.684 71.4207 2.86529 0.990519 0.137373 1 0.5 0 1
171 1 60.512 68.3128 0 139.778 -10.9532 0 133.933 267.776 -8.74932 108.335 0.998806 0.0488596 1 0.5 0 1
172 1 8.377 57.6146 0 8.377 -21.6514 0 -46.0877 245.555 -186.212 -94.2899 0.746857 -0.664985 1 0.5 0 1
173 1 52.0631 17.6941 0 52.0631 -61.5719 0 734.767 -595.813 -15.3468 -100.184 0.251525 0.967851 1 0.5 0 1
174 1 9.6624 51.6459 0 9.6624 51.6459 0 -450.937 82.771 88.8099 -4.79587 -0.918843 0.394623 1 0.5 0 1
175 1 53.7921 62.8277 0 -25.4739 -16.4383 0 397.063 -42.4452 -54.4541 -11.6888 0.937882 -0.346956 1 0.5 0 1
176 1 11.1468 50.2866 0 11.1468 50.2866 0 -146.749 416.315 178.74 17.787 0.893391 0.44928 1 0.5 0 1
177 1 3.07758 70.2201 0 3.07758 70.2201 0 317.998 1555.07 42.848 -205.552 -0.972713 0.23201 1 0.5 0 1
178 1 56.6892 28.6399 0 -22.5768 107.906 0 656.295 249.791 37.4246 -1.32378 -0.843909 0.536487 1 0.5 0 1
179 1 4.24125 55.368 0 4.24125 -23.898 0 537.462 278.927 16.0877 -16.9791 0.912161 -0.409832 1 0.5 0 1
180 1 73.8249 41.5697 0 73.8249 41.5697 0 511.003 -259.566 -57.2193 -47.9943 -0.908543 -0.417792 1 0.5 0 1
181 1 68.4094 13.5771 0 68.4094 13.5771 0 -305.159 558.899 36.3458 -93.0467 0.919642 -0.392758 1 0.5 0 1
182 1 10.2961 68.8016 0 -68.9699 68.8016 0 1820.27 -41.6155 -86.6654 -14.7865 -0.921809 -0.387645 1 0.5 0 1
183 1 58.5945 56.9447 0 58.5945 -22.3213 0 481.047 -1050.8 20.5771 36.2947 -0.929092 -0.36985 1 0.5 0 1
184 1 63.2556 42.4083 0 63.2556 42.4083 0 -3.34879 -230.409 -104.908 23.0083 -0.252881 -0.967497 1 0.5 0 1
185 1 53.754 17.1256 0 -25.512 17.1256 0 209.088 80.2188 -15.7779 27.0462 -0.588067 0.808812 1 0.5 0 1
186 1 18.7127 27.0089 0 -60.5533 106.275 0 726.545 -149.465 -77.0533 -42.2339 -0.532811 0.846234 1 0.5 0 1
187 1 55.0838 34.4854 0 -24.1822 113.751 0 93.966 -196.137 132.658 125.687 -0.100703 0.994917 1 0.5 0 1
188 1 64.4575 15.3515 0 143.724 94.6175 0 331.841 -211.047 44.9248 -99.2302 0.175815 0.984423 1 0.5 0 1
189 1 62.9213 73.421 0 -16.3447 73.421 0 124.282 60.5288 -104.187 63.1509 -0.0265363 -0.999648 1 0.5 0 1
190 1 21.0831 54.0042 0 -58.1829 54.0042 0 -373.775 -20.0943 141.418 42.7763 -0.0243563 0.999703 1 0.5 0 1
191 1 68.1384 12.5607 0 147.404 12.5607 0 -553.924 -860.518 -6.07063 -78.754 -0.0118508 -0.99993 1 0.5 0 1
192 1 58.4834 37.4132 0 58.4834 37.4132 0 498.215 -808.828 52.8468 -77.4223 -0.134869 0.990863 1 0.5 0 1
193 1 76.5968 14.5405 0 -2.66922 93.8065 0 -164.711 -663.687 158.999 -75.6869 -0.948385 0.317122 1 0.5 0 1
194 1 16.3998 28.8385 0 16.3998 -50.4275 0 199.255 -255.578 -63.9269 -33.9933 -0.917674 -0.397334 1 0.5 0 1
195 1 53.424 30.1495 0 53.424 30.1495 0 -145.733 -713.842 148.045 153.157 -0.69746 0.716624 1 0.5 0 1
196 1 58.4584 40.8952 0 58.4584 40.8952 0 358.483 -558.019 -48.0472 134.699 -0.120518 -0.992711 1 0.5 0 1
197 1 71.2132 60.9731 0 -8.05285 60.9731 0 334.83 -459.503 20.7631 -128.819 0.995199 -0.0978696 1 0.5 0 1
198 1 73.7627 45.0829 0 73.7627 45.0829 0 530.241 -1177.73 -266.735 196.731 -0.748799 0.662797 1 0.5 0 1
199 1 66.8909 68.6047 0 -12.3751 -10.6613 0 -899.752 207.832 -87.2708 55.8798 0.679568 -0.733612 1 0.5 0 1
200 1 2.21721 17.1897 0 81.4832 96.4557 0 -83.109 363.174 66.2536 -39.6604 0.235072 0.971978 1 0.5 0 1
201 1 71.4757 3.6439 0 -7.79032 82.9099 0 743.386 490.628 -10.612 9.49539 -0.445309 0.895377 1 0.5 0 1
202 1 56.4143 58.9516 0 -22.8517 -20.3144 0 -986.121 1061.77 59.6641 -254.464 0.529083 -0.84857 1 0.5 0 1
203 1 20.7136 37.2111 0 -58.5524 116.477 0 -467.224 -262.38 23.7757 -30.3009 -0.637383 0.770547 1 0.5 0 1
204 1 64.6667 63.2654 0 64.6667 -16.0006 0 -147.21 -361.994 26.3841 -175.719 -0.578278 -0.81584 1 0.5 0 1
205 1 49.0659 18.9194 0 49.0659 98.1854 0 -280.776 -228.244 3.66497 -21.0079 0.940835 0.338864 1 0.5 0 1
206 1 3.15485 58.6714 0 3.15485 -20.5946 0 192.755 118.085 14.9828 194.997 -0.272056 0.962282 1 0.5 0 1
207 1 59.4203 63.3894 0 59.4203 63.3894 0 64.1276 -691.833 -49.3615 36.1104 0.876161 -0.482018 1 0.5 0 1
208 1 9.01012 32.5875 0 9.01012 32.5875 0 -60.0445 -356.167 21.8632 151.02 -0.353126 0.935576 1 0.5 0 1
209 1 52.9191 27.2086 0 52.9191 106.475 0 -77.9475 228.798 -18.4117 35.5164 0.795678 -0.605719 1 0.5 0 1
210 1 66.0943 61.9519 0 -13.1717 61.9519 0 -49.8074 12.2713 130.711 -95.7892 -0.794939 0.606689 1 0.5 0 1
211 1 60.6222 42.4621 0 60.6222 42.4621 0 -451.922 -563.097 -114.231 390.645 0.630932 0.775838 1 0.5 0 1
212 1 21.6695 37.6609 0 180.202 37.6609 0 -79.9922 555.502 15.0282 4.10648 -0.527895 0.84931 1 0.5 0 1
213 1 69.4745 64.8992 0 69.4745 64.8992 0 178.925 897.004 -29.4794 -37.3049 -0.0548254 0.998496 1 0.5 0 1
214 1 21.4575 60.1059 0 21.4575 60.1059 0 305.943 -57.6038 -53.495 -75.1216 0.149945 -0.988694 1 0.5 0 1
215 1 55.0212 60.3383 0 55.0212 -18.9277 0 66.4535 -81.2801 72.1717 -59.0284 0.985791 -0.167978 1 0.5 0 1
216 1 14.8682 47.632 0 14.8682 126.898 0 -339.414 -328.118 -50.2809 117.409 -0.93117 0.364586 1 0.5 0 1
217 1 74.6752 8.85191 0 153.941 88.1179 0 219.089 -31.0573 -41.8829 21.2617 0.862624 0.505846 1 0.5 0 1
218 1 45.8558 48.5658 0 45.8558 48.5658 0 -139.131 298.754 -128.479 -112.475 -0.506073 -0.862491 1 0.5 0 1
219 1 53.025 44.5084 0 53.025 44.5084 0 498.51 -744.226 -78.0019 100.778 -0.966045 -0.258372 1 0.5 0 1
220 1 62.2791 67.9449 0 62.2791 -90.5871 0 408.145 -181.472 -119.478 -129.604 0.444462 0.895798 1 0.5 0 1
221 1 49.2412 22.1325 0 -30.0248 180.665 0 749.298 35.2353 -14.7578 89.809 0.950277 -0.311405 1 0.5 0 1
222 1 43.1073 33.0806 0 43.1073 33.0806 0 -232.505 -735.961 -21.4695 -19.2332 0.997696 0.0678388 1 0.5 0 1
223 1 71.9433 37.3515 0 -7.32272 37.3515 0 310.136 36.0026 138.304 -156.472 0.185296 -0.982683 1 0.5 0 1
224 1 75.9227 61.632 0 -3.34333 61.632 0 -1134.33 352.184 124.753 -228.606 0.455247 -0.890365 1 0.5 0 1
225 1 12.8035 26.3061 0 92.0695 -52.9599 0 -111.844 -223.758 -37.5167 -20.5849 -0.777757 -0.628565 1 0.5 0 1
226 1 42.4055 4.62858 0 -36.8605 4.62858 0 -203.167 94.9416 -16.679 -113.602 -0.654997 -0.755632 1 0.5 0 1
227 1 1.43743 37.4398 0 80.7034 37.4398 0 106.756 -526.492 179.289 -42.8964 -0.131761 -0.991281 1 0.5 0 1
228 1 13.5044 64.7712 0 -65.7616 -14.4948 0 484.729 572.951 6.51049 74.1574 0.694323 -0.719663 1 0.5 0 1
229 1 51.1418 40.2849 0 51.1418 40.2849 0 -429.667 382.609 -121.115 15.3513 -0.678982 -0.734155 1 0.5 0 1
230 1 51.6186 38.6835 0 51.6186 117.95 0 817.961 786.012 318.837 -169.54 -0.490958 0.871183 1 0.5 0 1
231 1 4.67064 23.2856 0 4.67064 102.552 0 -165.306 9.45801 -223.228 -150.936 -0.958966 0.283521 1 0.5 0 1
232 1 47.777 24.3808 0 47.777 -54.8852 0 -50.5192 -286.577 127.562 2.48281 0.556244 0.831019 1 0.5 0 1
233 1 7.09967 45.5914 0 7.09967 45.5914 0 149.553 -208.742 241.185 174.154 -0.349349 0.936993 1 0.5 0 1
234 1 62.2322 71.5773 0 62.2322 -7.68871 0 479.592 104.973 4.01951 12.5441 0.995676 -0.0928917 1 0.5 0 1
235 1 23.3482 55.5053 0 23.3482 134.771 0 459.73 -740.645 -43.4159 151.382 -0.803869 0.594807 1 0.5 0 1
236 1 54.4923 64.8622 0 133.758 -14.4038 0 672.038 40.421 124.646 -129.72 0.814144 -0.580663 1 0.5 0 1
237 1 69.9264 70.6849 0 69.9264 -8.58109 0 -93.4368 -1171.79 -8.67225 -13.7083 -0.139517 -0.99022 1 0.5 0 1
238 1 69.0676 22.0066 0 69.0676 101.273 0 -205.832 -768.314 -57.6529 -4.64398 0.895367 0.445329 1 0.5 0 1
239 1 3.69463 42.704 0 82.9606 42.704 0 -40.5394 -93.3641 1.13602 55.8423 0.860492 -0.509463 1 0.5 0 1
240 1 72.0127 18.4666 0 72.0127 18.4666 0 748.584 806.983 48.5191 76.354 0.359921 -0.932983 1 0.5 0 1
241 1 47.6291 36.1663 0 47.6291 36.1663 0 -622.399 60.0329 -73.7452 119.983 -0.182899 -0.983132 1 0.5 0 1
242 1 3.8694 62.6745 0 83.1354 -16.5915 0 100.943 -401.566 160.502 51.462 0.996827 0.0795928 1 0.5 0 1
243 1 63.4356 74.4717 0 -95.0964 74.4717 0 224.388 609.727 -32.5416 -14.4625 -0.98743 -0.158054 1 0.5 0 1
244 1 60.5986 25.3835 0 60.5986 104.65 0 655.648 229.961 -13.9621 44.2865 0.992547 0.121862 1 0.5 0 1
245 1 56.287 50.8427 0 56.287 50.8427 0 -519.506 -661.96 -66.1991 35.5159 -0.0309819 -0.99952 1 0.5 0 1
246 1 48.7248 41.2873 0 48.7248 41.2873 0 552.425 -103.852 79.1532 -102.941 0.0977241 -0.995214 1 0.5 0 1
247 1 67.0083 54.215 0 67.0083 -25.051 0 -66.2635 -859.162 29.7315 -28.2005 0.552217 -0.833701 1 0.5 0 1
248 1 30.0534 22.5167 0 -49.2126 22.5167 0 -155.223 20.7332 -25.5055 -69.7604 0.116424 -0.9932 1 0.5 0 1
249 1 37.7621 49.2512 0 117.028 -30.0148 0 -148.732 -676.527 -40.9157 65.0643 0.765557 -0.643368 1 0.5 0 1
250 1 53.8816 67.6216 0 212.414 67.6216 0 76.8783 -158.81 20.1257 19.4291 0.895701 -0.444657 1 0.5 0 1
251 1 63.4611 15.0168 0 63.4611 173.549 0 -592.732 399.989 57.0183 -80.7218 0.536595 0.84384 1 0.5 0 1
252 1 60.9428 21.7771 0 60.9428 101.043 0 78.4024 -550.698 -110.698 -41.5379 -0.991815 -0.127686 1 0.5 0 1
253 1 17.06 49.2151 0 17.06 49.2151 0 -1003.67 -317.473 362.906 -92.8307 -0.937012 -0.349296 1 0.5 0 1
254 1 46.932 33.2331 0 46.932 112.499 0 118.794 -771.359 -37.4176 -17.3502 0.320414 -0.947277 1 0.5 0 1
255 1 1.59365 34.832 0 80.8596 114.098 0 -256.618 699.022 -5.87977 -116.296 0.677301 0.735706 1 0.5 0 1
256 1 68.6276 42.4615 0 -10.6384 42.4615 0 770.604 626.169 -467.719 -51.2453 -0.99014 -0.140083 1 0.5 0 1
257 1 7.82632 38.5709 0 7.82632 117.837 0 -331.322 80.3582 152.722 -116.026 -0.970254 -0.24209 1 0.5 0 1
258 1 7.3797 26.7708 0 7.3797 -52.4952 0 -412.009 -1180.34 -68.8859 -61.8222 0.52167 0.853147 1 0.5 0 1
259 1 37.9415 51.3603 0 37.9415 51.3603 0 659.709 -66.0023 26.8802 -34.7709 0.251449 -0.96787 1 0.5 0 1
260 1 70.4042 68.9444 0 149.67 -10.3216 0 -280.221 -393.694 -58.5589 -25.9697 0.970689 0.24034 1 0.5 0 1
261 1 10.9155 20.9971 0 10.9155 20.9971 0 415.831 58.6004 9.57433 50.0099 0.100709 0.994916 1 0.5 0 1
262 1 56.6596 59.9227 0 135.926 -19.3433 0 339.598 458.705 -89.3193 -50.7728 -0.193799 -0.981041 1 0.5 0 1
263 1 77.4886 74.0019 0 -81.0434 -84.5301 0 820.651 129.488 40.8393 13.668 -0.276746 -0.960943 1 0.5 0 1
264 1 19.5394 41.5019 0 178.071 -37.7641 0 -147.928 1146.25 -67.9087 13.3323 -0.974374 0.224932 1 0.5 0 1
265 1 52.3182 28.8028 0 52.3182 108.069 0 1404.48 -272.261 82.9503 3.97567 0.412236 -0.911077 1 0.5 0 1
266 1 55.7958 52.4597 0 55.7958 52.4597 0 587.209 -289.39 -41.8046 84.0044 0.75291 0.658124 1 0.5 0 1
267 1 72.6638 63.2015 0 -6.60216 -16.0645 0 1061.7 641.258 -219.227 -325.077 -0.277448 -0.960741 1 0.5 0 1
268 1 66.6005 60.3285 0 66.6005 60.3285 0 -60.3059 -496.333 183.465 19.8174 0.447275 -0.894397 1 0.5 0 1
269 1 16.97 55.7217 0 96.236 55.7217 0 366.808 14.3955 20.6472 -63.2357 -0.687963 0.725745 1 0.5 0 1
270 1 46.1204 3.97649 0 46.1204 3.97649 0 -475.182 -529.662 -23.771 34.3782 -0.998307 0.0581716 1 0.5 0 1
271 1 70.7632 11.3516 0 70.7632 11.3516 0 -31.8665 -386.9 -25.6197 58.8082 0.566104 -0.824334 1 0.5 0 1
272 1 50.6703 38.29 0 50.6703 38.29 0 -159.556 -789.129 -79.9041 206.302 0.469598 -0.88288 1 0.5 0 1
273 1 59.767 50.1748 0 59.767 50.1748 0 -547.841 -691.208 -240.587 -70.8359 -0.0241427 0.999709 1 0.5 0 1
274 1 75.9851 6.54197 0 75.9851 6.54197 0 -1040.34 373.957 54.7355 -33.0763 0.851306 0.52467 1 0.5 0 1
275 1 7.5303 63.0972 0 86.7963 -16.1688 0 775.008 45.6005 -117.046 -89.0642 -0.45115 0.892448 1 0.5 0 1
276 1 57.6131 45.1378 0 57.6131 45.1378 0 387.948 829.179 153.18 -131.314 -0.483205 0.875507 1 0.5 0 1
277 1 74.8505 6.38755 0 -4.41555 6.38755 0 243.245 -35.0523 128.913 2.14343 0.961718 -0.27404 1 0.5 0 1
278 1 9.98703 32.8786 0 -69.279 112.145 0 396.011 -212.256 -102.93 -189.162 -0.20534 -0.978691 1 0.5 0 1
279 1 21.3173 44.7437 0 100.583 -113.788 0 -142.195 -272.29 55.2177 61.9771 -0.874493 -0.485038 1 0.5 0 1
280 1 1.50381 74.8757 0 -77.7622 -83.6563 0 -136.324 210.657 -55.2448 -14.1805 -0.44413 -0.895963 1 0.5 0 1
281 1 68.3862 56.4507 0 68.3862 56.4507 0 -518.673 26.6382 -72.7609 -263.686 -0.94367 0.330889 1 0.5 0 1
282 1 47.3416 47.2073 0 47.3416 -32.0587 0 461.716 377.525 -164.431 239.89 0.0193508 -0.999813 1 0.5 0 1
283 1 68.9321 31.9495 0 -10.3339 111.215 0 -263.072 220.579 -140.405 85.7238 -0.389447 -0.921049 1 0.5 0 1
284 1 6.2087 29.1206 0 6.2087 108.387 0 590.911 661.333 146.609 -138.924 0.518981 0.854785 1 0.5 0 1
285 1 65.1877 35.1355 0 65.1877 35.1355 0 311.115 544.082 96.5799 -182.026 0.898652 -0.438662 1 0.5 0 1