ITEM: TIMESTEP
330000
ITEM: NUMBER OF ATOMS
4000
ITEM: BOX BOUNDS pp pp pp
0.0000000000000000e+00 7.9266000000000005e+01
0.0000000000000000e+00 7.9266000000000005e+01
-5.0000000000000000e-01 5.0000000000000000e-01
ITEM: ATOMS id type x y z xu yu zu vx vy fx fy mux muy mu radius omegaz mass
1 1 1.43653 64.228 0 80.7025 64.228 0 473.977 201.814 74.3264 -173.649 -0.977228 -0.212191 1 0.5 0 1
2 1 60.1193 17.5691 0 60.1193 17.5691 0 -124.234 -345.572 -72.4842 -28.0249 0.839847 0.542823 1 0.5 0 1
3 1 14.9925 35.7467 0 14.9925 -43.5193 0 -563.207 208.354 65.0122 -78.3684 -0.567278 0.823526 1 0.5 0 1
4 1 28.879 20.8607 0 28.879 20.8607 0 297.014 -16.1632 -85.733 -51.4767 -0.85733 -0.514767 1 0.5 0 1
5 1 2.6354 31.554 0 2.6354 31.554 0 -72.136 279.746 -85.4929 -281.091 0.201799 0.979427 1 0.5 0 1
6 1 69.6155 28.4063 0 -9.65047 28.4063 0 833.088 -21.3031 -92.5796 212.117 -0.804451 -0.59402 1 0.5 0 1
7 1 66.6732 48.9522 0 66.6732 48.9522 0 -30.0841 292.726 198.065 -11.6694 0.107719 0.994181 1 0.5 0 1
8 1 15.4784 38.6776 0 15.4784 -40.5884 0 693.154 146.969 42.3249 -29.537 -0.534323 -0.84528 1 0.5 0 1
9 1 68.2771 26.1942 0 68.2771 26.1942 0 311.841 -159.906 117.826 -7.12987 -0.0301176 -0.999546 1 0.5 0 1
10 1 18.8362 54.3105 0 18.8362 54.3105 0 -558.856 458.601 145.488 -304.617 -0.32897 -0.94434 1 0.5 0 1
11 1 1.3036 8.72361 0 -77.9624 8.72361 0 319.427 -285.422 -65.1285 75.8833 -0.651285 0.758833 1 0.5 0 1
12 1 0.862635 22.7693 0 80.1286 102.035 0 -408.678 27.2818 76.7035 -1.33458 -0.96461 -0.263681 1 0.5 0 1
13 1 75.6195 68.9802 0 75.6195 -10.2858 0 -674.719 -373.822 -8.81631 84.6538 -0.962309 -0.271957 1 0.5 0 1
14 1 30.6814 44.8184 0 -127.851 44.8184 0 -671.574 1004.36 -99.7381 7.23204 -0.997381 0.0723204 1 0.5 0 1
15 1 10.255 34.1257 0 10.255 34.1257 0 101.268 228.374 193.833 187.054 -0.882833 0.469687 1 0.5 0 1
16 1 15.5159 49.0107 0 -63.7501 -30.2553 0 -363.58 102.187 -100.337 144.431 -0.813582 0.58145 1 0.5 0 1
17 1 40.3009 41.1583 0 119.567 120.424 0 -414.195 135.08 55.9102 -14.1871 0.89458 0.446909 1 0.5 0 1
18 1 30.8906 39.8017 0 30.8906 39.8017 0 -426.07 140.205 -22.5958 -97.4137 -0.225958 -0.974137 1 0.5 0 1
19 1 3.74716 40.9815 0 3.74716 40.9815 0 -546.119 328.256 93.3495 14.6348 0.973851 0.227187 1 0.5 0 1
20 1 13.5908 56.5357 0 13.5908 56.5357 0 261.793 -411.109 214.724 70.1381 0.82625 -0.563303 1 0.5 0 1
21 1 3.75411 28.2936 0 3.75411 28.2936 0 -221.665 44.5876 68.0225 29.4367 0.0390287 0.999238 1 0.5 0 1
22 1 2.36384 21.4518 0 81.6298 21.4518 0 -107.639 719.638 -190.018 -62.0199 -0.949981 0.312306 1 0.5 0 1
23 1 37.3988 48.0801 0 116.665 48.0801 0 3.82476 206.297 -126.36 46.5201 0.630467 0.776216 1 0.5 0 1
24 1 65.6276 56.8265 0 65.6276 -22.4395 0 -828.763 35.911 27.8738 -2.3774 0.933515 -0.358538 1 0.5 0 1
25 1 48.4674 29.119 0 -30.7986 -50.147 0 -501.553 583.601 50.3528 -5.83537 0.798356 -0.602186 1 0.5 0 1
26 1 51.9772 56.6166 0 51.9772 -101.915 0 730.442 -429.374 80.0763 -33.0856 0.995442 -0.0953684 1 0.5 0 1
27 1 74.8204 17.7083 0 -4.44558 96.9743 0 -269.707 209.498 8.43321 -196.447 -0.89095 0.454102 1 0.5 0 1
28 1 58.8743 15.0972 0 58.8743 94.3632 0 641.451 735.264 -29.7649 -62.2295 0.997608 -0.0691181 1 0.5 0 1
29 1 73.6357 37.7114 0 -5.63032 37.7114 0 3.71478 -284.607 -2.80233 3.12755 -0.992372 0.123277 1 0.5 0 1
30 1 64.164 14.3349 0 64.164 93.6009 0 183.672 275.951 -35.6966 104.32 0.196225 0.980559 1 0.5 0 1
31 1 74.6181 26.392 0 -4.64793 26.392 0 459.419 201.308 -141.939 -165.854 -0.707044 0.707169 1 0.5 0 1
32 1 2.51653 14.8475 0 2.51653 14.8475 0 88.539 366.636 -44.6933 -36.6408 0.0685637 0.997647 1 0.5 0 1
33 1 64.101 58.1252 0 64.101 -21.1408 0 -428.545 98.9272 61.6948 142.827 0.672085 -0.740474 1 0.5 0 1
34 1 5.34464 44.2452 0 84.6106 44.2452 0 686.206 504.883 200.579 43.6306 0.830362 0.557224 1 0.5 0 1
35 1 38.3475 41.1795 0 -40.9185 41.1795 0 106.563 285.639 124.309 -132.358 0.845149 -0.534531 1 0.5 0 1
36 1 59.4331 57.9907 0 59.4331 -21.2753 0 591.39 -761.273 -256.297 -62.2839 0.657672 0.753304 1 0.5 0 1
37 1 69.3931 41.6851 0 69.3931 41.6851 0 -455.968 183.8 69.534 -6.85827 -0.976057 -0.217516 1 0.5 0 1
38 1 70.1095 11.4154 0 149.375 90.6814 0 0.163177 372.972 -3.74197 90.6007 0.886114 0.463468 1 0.5 0 1
39 1 9.68733 22.6011 0 88.9533 -56.6649 0 281.053 -154.019 -121.558 5.68462 -0.745773 0.6662 1 0.5 0 1
40 1 56.4488 17.0876 0 -22.8172 96.3536 0 114.245 -76.3229 102.613 -34.2372 0.744525 0.667594 1 0.5 0 1
41 1 68.2118 52.1924 0 68.2118 52.1924 0 365.389 -445.542 46.0177 101.524 0.728074 0.685499 1 0.5 0 1
42 1 74.2442 59.5331 0 -5.02183 59.5331 0 -592.214 -221.575 55.1908 -66.1051 -0.2126 -0.977139 1 0.5 0 1
43 1 0.626459 15.182 0 -78.6395 94.448 0 173.965 -275.515 176.013 7.93672 -0.73641 0.676535 1 0.5 0 1
44 1 64.7907 20.2304 0 64.7907 99.4964 0 127.03 482.227 135.661 130.431 -0.992127 0.125232 1 0.5 0 1
45 1 20.5991 7.42861 0 20.5991 -71.8374 0 676.251 5.36381 -70.4839 -70.9368 -0.704839 -0.709368 1 0.5 0 1
46 1 6.3364 40.9963 0 6.3364 40.9963 0 246.581 -447.715 35.3385 59.3776 0.415127 0.909764 1 0.5 0 1
47 1 57.5317 61.1419 0 57.5317 -18.1241 0 -231.737 -500.35 43.9132 -79.8681 -0.146639 -0.98919 1 0.5 0 1
48 1 10.9939 46.1868 0 10.9939 46.1868 0 -718.973 -60.5682 442.6 82.6652 -0.941398 0.337299 1 0.5 0 1
49 1 39.5894 22.7216 0 39.5894 101.988 0 444.484 390.877 -89.7703 44.06 -0.897703 0.4406 1 0.5 0 1
50 1 10.7803 6.31633 0 10.7803 6.31633 0 98.4808 -79.016 -105.424 -46.5206 -0.640131 -0.768266 1 0.5 0 1
51 1 12.6427 6.82205 0 -66.6233 6.82205 0 -465.468 -261.013 29.0585 13.7523 -0.871445 -0.490494 1 0.5 0 1
52 1 3.74074 32.8556 0 83.0067 32.8556 0 -537.846 -523.323 38.1683 81.5125 -0.743197 0.669072 1 0.5 0 1
53 1 10.7517 54.3646 0 10.7517 133.631 0 -518.637 467.256 70.8897 -40.8787 -0.718205 0.695832 1 0.5 0 1
54 1 52.9183 29.0481 0 52.9183 29.0481 0 237.999 74.4606 -226.72 -103.526 -0.330117 0.94394 1 0.5 0 1
55 1 19.7203 42.7572 0 98.9863 122.023 0 458.537 332.91 -3.6902 89.7998 -0.967161 0.254166 1 0.5 0 1
56 1 39.1064 37.3344 0 39.1064 37.3344 0 238.337 -58.5414 2.32466 50.5479 0.979274 -0.202539 1 0.5 0 1
57 1 14.0241 26.0669 0 14.0241 105.333 0 -339.207 -405.705 -164.828 17.6135 -0.771473 -0.636262 1 0.5 0 1
58 1 67.5205 26.8454 0 -11.7455 26.8454 0 419.144 -71.7639 -11.4447 158.529 -0.34921 -0.937045 1 0.5 0 1
59 1 51.9241 33.208 0 51.9241 33.208 0 -399.751 -693.443 47.8212 70.3851 -0.840233 -0.542226 1 0.5 0 1
60 1 56.083 39.9803 0 56.083 39.9803 0 233.298 150.645 -155.445 16.0426 0.478918 -0.87786 1 0.5 0 1
61 1 58.6495 43.4873 0 58.6495 43.4873 0 458.072 -12.8965 -153.546 18.1335 0.0395118 0.999219 1 0.5 0 1
62 1 56.7867 19.1873 0 136.053 19.1873 0 -405.606 -110.615 -8.92037 88.5481 0.452419 0.891806 1 0.5 0 1
63 1 12.0989 59.6958 0 -67.1671 -19.5702 0 181.726 324.255 -19.4116 76.1277 0.954936 -0.296812 1 0.5 0 1
64 1 47.2902 27.7181 0 126.556 106.984 0 528.356 -230.994 46.8827 113.451 -0.889855 0.456244 1 0.5 0 1
65 1 22.241 4.4858 0 180.773 83.7518 0 -1053.95 119.64 70.3695 71.0502 0.703695 0.710502 1 0.5 0 1
66 1 12.4461 44.7698 0 91.7121 124.036 0 -786.634 -36.7422 77.811 41.9604 0.57667 0.816977 1 0.5 0 1
67 1 53.9333 41.8892 0 53.9333 41.8892 0 -303.428 126.85 -241.862 196.715 -0.588373 -0.80859 1 0.5 0 1
68 1 14.1822 40.9819 0 14.1822 40.9819 0 66.5975 530.278 100.366 -55.8818 -0.9819 -0.189402 1 0.5 0 1
69 1 53.2335 19.709 0 53.2335 19.709 0 -92.9248 400.324 -48.1672 47.065 0.819204 0.573503 1 0.5 0 1
70 1 48.3101 37.2423 0 48.3101 116.508 0 19.7014 219.093 194.62 254.261 0.928796 0.370591 1 0.5 0 1
71 1 13.6805 8.81918 0 92.9465 8.81918 0 652.49 440.393 86.7353 -49.7694 0.867353 -0.497694 1 0.5 0 1
72 1 3.2429 56.6734 0 3.2429 56.6734 0 -167.274 -242.078 -73.1251 -106.002 -0.250272 -0.968176 1 0.5 0 1
73 1 77.5154 10.252 0 -1.75057 10.252 0 -702.513 352.941 79.9919 87.9811 -0.565834 0.824519 1 0.5 0 1
74 1 57.0289 21.2403 0 57.0289 100.506 0 -74.3878 247.657 110.314 36.6159 0.318514 0.947918 1 0.5 0 1
75 1 75.2814 37.3842 0 -3.98458 37.3842 0 856.316 -908.557 -72.1923 -62.2414 0.955945 0.293546 1 0.5 0 1
76 1 48.0043 23.2467 0 -31.2617 23.2467 0 -846.304 527.714 -17.0495 -15.7468 0.298469 0.954419 1 0.5 0 1
77 1 77.9336 33.7566 0 -1.33244 33.7566 0 -375.661 -353.061 252.936 108.818 0.795793 -0.605569 1 0.5 0 1
78 1 59.0335 16.1963 0 59.0335 95.4623 0 -570.247 473.049 53.5306 -104.825 0.765528 0.643402 1 0.5 0 1
79 1 48.657 58.512 0 -30.609 58.512 0 -1094.09 667.038 77.3126 -4.47537 -0.183764 -0.98297 1 0.5 0 1
80 1 0.716201 26.3494 0 0.716201 -52.9166 0 -204.086 75.4425 -11.3109 54.1979 0.724343 0.68944 1 0.5 0 1
81 1 47.6585 34.3217 0 126.925 34.3217 0 -319.985 75.4337 30.448 12.6447 0.0121105 -0.999927 1 0.5 0 1
82 1 0.505852 37.9959 0 0.505852 37.9959 0 13.1935 896.975 105.325 -81.5988 0.195522 0.980699 1 0.5 0 1
83 1 41.2652 41.5406 0 120.531 120.807 0 -709.954 71.41 -10.888 -8.20459 0.417655 0.908606 1 0.5 0 1
84 1 75.8465 43.9471 0 -3.41952 43.9471 0 414.756 -367.713 26.7693 76.6117 -0.992803 -0.119758 1 0.5 0 1
85 1 55.8756 13.0274 0 55.8756 13.0274 0 -400.186 -344.14 -77.1626 7.19919 -0.888593 0.458696 1 0.5 0 1
86 1 10.3511 39.6376 0 10.3511 39.6376 0 226.799 5.50224 104.436 -116.524 -0.902762 0.430141 1 0.5 0 1
87 1 10.7451 41.5557 0 10.7451 41.5557 0 -485.093 -248.696 111.289 -100.109 -0.857555 -0.514393 1 0.5 0 1
88 1 16.1269 61.3381 0 16.1269 -17.9279 0 -94.2372 -610.178 -18.5862 10.8237 -0.864872 -0.501993 1 0.5 0 1
89 1 43.7023 3.62451 0 43.7023 3.62451 0 -111.579 574.85 -61.6457 -78.7388 -0.616457 -0.787388 1 0.5 0 1
90 1 3.842 37.3684 0 3.842 37.3684 0 41.153 192.973 81.3728 119.267 -0.795305 0.60621 1 0.5 0 1
91 1 14.6215 57.9676 0 14.6215 -21.2984 0 145.372 189.379 12.4085 173.109 -0.632278 -0.774742 1 0.5 0 1
92 1 2.35598 53.8219 0 2.35598 53.8219 0 -947.959 -799.912 15.2144 171.824 -0.0188792 -0.999822 1 0.5 0 1
93 1 1.0289 44.5363 0 1.0289 44.5363 0 -1296.38 88.6726 -44.7188 -309.533 0.0649878 0.997886 1 0.5 0 1
94 1 69.631 35.4393 0 69.631 35.4393 0 107.178 496.537 36.951 149.711 0.935965 -0.352092 1 0.5 0 1
95 1 66.4846 47.952 0 66.4846 47.952 0 710.821 -298.741 37.4569 -44.9835 -0.871445 -0.490492 1 0.5 0 1
96 1 53.671 40.9242 0 53.671 40.9242 0 -531.195 98.7575 153.407 -135.616 -0.264211 -0.964465 1 0.5 0 1
97 1 38.8902 34.2735 0 38.8902 -44.9925 0 -92.1459 1131.77 -106.634 22.6741 0.652892 -0.757451 1 0.5 0 1
98 1 20.4079 48.7265 0 20.4079 48.7265 0 -389.013 144.845 -2.44243 24.4272 -0.821126 -0.570747 1 0.5 0 1
99 1 43.6115 39.4502 0 43.6115 -39.8158 0 -414.448 -423.825 -16.6598 25.5604 0.98622 0.165441 1 0.5 0 1
100 1 72.1458 42.6602 0 72.1458 42.6602 0 -736.608 -49.473 222.002 250.775 -0.491392 -0.870939 1 0.5 0 1
101 1 49.5812 45.8252 0 49.5812 -33.4408 0 98.0268 -894.527 56.3094 -200.788 -0.234175 0.972195 1 0.5 0 1
102 1 78.0379 41.8969 0 -1.22811 41.8969 0 347.496 569.786 -156.84 59.0624 -0.233547 -0.972345 1 0.5 0 1
103 1 77.2245 75.7785 0 -81.3075 155.044 0 1084.59 142.59 -65.3753 -45.0008 -0.551643 -0.83408 1 0.5 0 1
104 1 53.2221 42.5423 0 53.2221 121.808 0 483.845 348.852 -14.2827 -30.6363 0.361472 0.932383 1 0.5 0 1
105 1 9.3711 9.02708 0 9.3711 9.02708 0 -645.851 24.8787 36.8353 92.9686 0.368353 0.929686 1 0.5 0 1
106 1 25.178 69.0916 0 25.178 -10.1744 0 276.119 523.772 56.6292 -82.4205 0.566292 -0.824205 1 0.5 0 1
107 1 61.4701 36.3588 0 61.4701 36.3588 0 879.618 256.604 -23.4951 80.2562 -0.64471 -0.764428 1 0.5 0 1
108 1 78.4011 35.7126 0 -0.864933 114.979 0 114.613 -398.318 -166.408 -12.0596 0.966249 -0.257609 1 0.5 0 1
109 1 10.6215 23.0648 0 -68.6445 102.331 0 -666.149 -204.483 130.353 -88.5821 0.392137 0.919907 1 0.5 0 1
110 1 50.4316 29.9548 0 50.4316 29.9548 0 596.659 411.024 -99.2208 -37.393 -0.768513 0.639834 1 0.5 0 1
111 1 73.5128 13.496 0 73.5128 92.762 0 -704.008 -336.341 38.7241 -219.262 -0.21875 0.975781 1 0.5 0 1
112 1 9.86153 48.4955 0 9.86153 48.4955 0 -677.825 127.132 84.8088 148.938 0.994769 -0.102154 1 0.5 0 1
113 1 13.6219 28.7503 0 -65.6441 108.016 0 10.7258 279.157 -156.664 248.96 -0.994999 0.0998885 1 0.5 0 1
114 1 53.9177 53.5372 0 53.9177 53.5372 0 -372.322 116.06 261.438 76.303 0.989922 -0.141612 1 0.5 0 1
115 1 40.1077 47.7748 0 40.1077 -31.4912 0 19.2079 -212.023 58.6421 -145.772 -0.404293 -0.91463 1 0.5 0 1
116 1 41.0233 26.2692 0 41.0233 -52.9968 0 -703.864 61.858 85.2027 -65.495 0.749697 -0.661782 1 0.5 0 1
117 1 59.9414 69.071 0 59.9414 -10.195 0 104.779 793.993 82.847 0.777711 0.779485 -0.626421 1 0.5 0 1
118 1 54.426 40.3068 0 54.426 40.3068 0 719.645 -637.698 -104.734 83.807 0.951165 0.308682 1 0.5 0 1
119 1 57.2883 16.3953 0 136.554 16.3953 0 -246.616 -250.405 11.7847 60.4213 0.755256 -0.65543 1 0.5 0 1
120 1 45.9846 50.0157 0 125.251 -29.2503 0 126.069 -1137.77 -94.3493 137.037 0.324882 -0.945755 1 0.5 0 1
121 1 26.1883 1.41929 0 -132.344 1.41929 0 175.441 -80.1037 31.9407 94.7617 0.319407 0.947617 1 0.5 0 1
122 1 16.9913 10.5007 0 16.9913 89.7667 0 -97.1144 299.177 -57.1976 82.027 -0.571976 0.82027 1 0.5 0 1
123 1 74.6255 30.8397 0 -4.64045 30.8397 0 383.251 296.799 24.7737 58.8381 -0.98677 0.162125 1 0.5 0 1
124 1 63.2976 73.6265 0 -15.9684 -5.63952 0 -327.073 350.188 -67.3147 19.0889 -0.890677 0.454637 1 0.5 0 1
125 1 65.7989 27.1816 0 65.7989 27.1816 0 -442.789 213.122 154.028 129.064 -0.703672 -0.710525 1 0.5 0 1
126 1 8.57326 34.4746 0 87.8393 113.741 0 125.218 1115.26 -13.4247 -136.823 0.791465 -0.611215 1 0.5 0 1
127 1 57.4795 29.7462 0 57.4795 109.012 0 565.338 463.04 -163.785 -186.489 0.969256 0.246054 1 0.5 0 1
128 1 3.18516 25.3809 0 -76.0808 25.3809 0 6.0467 -296.859 -37.2731 -141.207 -0.653522 0.756907 1 0.5 0 1
129 1 67.3374 56.4387 0 67.3374 -22.8273 0 1232.34 74.2632 -98.2465 -9.30414 -0.733145 -0.680072 1 0.5 0 1
130 1 73.3282 55.6827 0 73.3282 -23.5833 0 229.651 -531.552 -307.08 -21.4792 0.300849 -0.953672 1 0.5 0 1
131 1 3.74598 70.9909 0 3.74598 70.9909 0 -280.386 51.155 -63.902 -31.8821 0.230327 -0.973113 1 0.5 0 1
132 1 59.5369 31.3532 0 -19.7291 110.619 0 -252.761 326.868 -168.05 -128.796 0.9806 -0.196017 1 0.5 0 1
133 1 18.0353 48.0598 0 18.0353 127.326 0 1085.58 224.76 -347.516 146.574 -0.938303 -0.345814 1 0.5 0 1
134 1 11.6769 37.3555 0 11.6769 37.3555 0 154.412 418.444 -2.74475 -43.2763 -0.943679 -0.330862 1 0.5 0 1
135 1 14.1636 53.0348 0 14.1636 132.301 0 -177.536 -229.249 -46.3658 -47.3461 -0.0992851 0.995059 1 0.5 0 1
136 1 18.1024 7.10142 0 97.3684 86.3674 0 201.768 143.651 36.3964 93.1413 0.363964 0.931413 1 0.5 0 1
137 1 44.8753 65.5097 0 124.141 65.5097 0 -990.288 -652.89 -30.5003 -95.2351 -0.305003 -0.952351 1 0.5 0 1
138 1 47.9278 50.6595 0 -31.3382 -28.6065 0 -264.395 218.299 153.12 51.8864 0.920653 -0.390382 1 0.5 0 1
139 1 43.2274 42.1606 0 43.2274 -37.1054 0 606.059 448.707 140.87 160.635 0.849732 -0.527215 1 0.5 0 1
140 1 76.556 9.89127 0 -2.70996 9.89127 0 936.506 -63.5283 -46.3515 -4.48862 -0.596224 0.802818 1 0.5 0 1
141 1 8.35736 56.2429 0 8.35736 56.2429 0 100.044 150.689 69.877 18.634 0.863421 0.504483 1 0.5 0 1
142 1 20.6404 77.2822 0 -58.6256 77.2822 0 -580.429 568.619 -41.7946 90.8472 -0.417946 0.908472 1 0.5 0 1
143 1 10.4564 35.0971 0 10.4564 114.363 0 960.829 500.485 -115.863 -66.3211 0.851733 -0.523976 1 0.5 0 1
144 1 36.2456 4.25262 0 36.2456 4.25262 0 -692.831 -45.4952 49.8537 86.6868 0.498537 0.866868 1 0.5 0 1
145 1 10.4457 66.7695 0 89.7117 66.7695 0 -816.596 -6.2809 57.4005 -16.705 0.107858 -0.994166 1 0.5 0 1
146 1 59.8808 62.5256 0 59.8808 -16.7404 0 562.401 -67.2073 -166.884 -38.8359 0.348831 -0.937186 1 0.5 0 1
147 1 78.3025 69.0254 0 78.3025 -10.2406 0 -859.858 -243.716 132.767 -39.144 -0.821444 -0.570289 1 0.5 0 1
148 1 51.2227 57.3154 0 130.489 57.3154 0 -732 76.3852 122.609 69.1877 -0.400353 0.916361 1 0.5 0 1
149 1 71.7453 29.9496 0 71.7453 109.216 0 522.82 223.964 -173.975 120.147 -0.997113 0.0759303 1 0.5 0 1
150 1 66.6731 34.6633 0 -12.5929 34.6633 0 -293.148 229.445 -192.888 66.5566 0.982704 0.185182 1 0.5 0 1
151 1 2.27196 56.4126 0 81.538 -22.8534 0 -372.004 -292.243 139.92 -95.8383 0.992868 -0.119221 1 0.5 0 1
152 1 62.494 64.8846 0 62.494 64.8846 0 -340.393 728.437 109.154 -88.4322 0.890897 -0.454206 1 0.5 0 1
153 1 75.9591 59.185 0 75.9591 59.185 0 -474.187 -141.12 -1.27012 27.5184 0.886928 -0.461908 1 0.5 0 1
154 1 1.88272 48.4071 0 1.88272 48.4071 0 954.205 151.215 0.382396 -269.592 -0.626075 0.779762 1 0.5 0 1
155 1 68.7491 65.9019 0 -89.7829 -13.3641 0 788.139 -403.923 3.82796 -31.7019 0.66713 -0.744942 1 0.5 0 1
156 1 73.1878 47.5678 0 73.1878 47.5678 0 -550.746 -394.605 142.208 -14.0136 -0.892825 -0.450403 1 0.5 0 1
157 1 5.67187 28.9556 0 5.67187 28.9556 0 88.6571 286.021 -166.899 -185.401 0.373416 -0.927664 1 0.5 0 1
158 1 66.9134 38.1566 0 -12.3526 38.1566 0 -324.563 38.1986 -99.3081 -63.9888 -0.681735 -0.731599 1 0.5 0 1
159 1 10.1522 3.11137 0 10.1522 82.3774 0 -531.846 207.7 51.6684 45.5908 -0.635395 0.772187 1 0.5 0 1
160 1 7.25014 70.6572 0 7.25014 -8.60881 0 -13.6935 131.721 34.6658 10.2227 0.950775 -0.309882 1 0.5 0 1
161 1 42.831 32.3185 0 42.831 -46.9475 0 -325.1 8.68216 4.846 95.3372 0.156342 -0.987703 1 0.5 0 1
162 1 5.1524 51.2128 0 5.1524 51.2128 0 691.895 -96.6961 -138.864 -182.509 -0.145813 -0.989312 1 0.5 0 1
163 1 63.2688 48.616 0 63.2688 48.616 0 398.44 292.03 8.3574 46.3744 0.994168 0.107843 1 0.5 0 1
164 1 56.4533 63.6935 0 56.4533 -15.5725 0 238.894 -735.257 39.6498 -86.7945 -0.644064 -0.764972 1 0.5 0 1
165 1 19.2463 31.5274 0 19.2463 31.5274 0 -32.0901 120.898 36.8907 76.8903 0.404426 0.914571 1 0.5 0 1
166 1 9.58354 43.9126 0 9.58354 43.9126 0 1316.06 38.0869 -35.8522 172.115 0.574932 0.818201 1 0.5 0 1
167 1 65.0766 27.8502 0 65.0766 27.8502 0 -404.848 -586.033 -20.8478 -168.435 0.454011 -0.890996 1 0.5 0 1
168 1 13.5677 24.0301 0 -65.6983 103.296 0 -1013.54 553.545 53.6628 15.9085 -0.747122 -0.664687 1 0.5 0 1
169 1 20.5897 58.7047 0 -58.6763 137.971 0 385.979 -746.825 -96.9406 -24.5464 -0.969406 -0.245464 1 0.5 0 1
170 1 15.0146 52.5301 0 94.2806 131.796 0 561.219 751.448 -3.17122 34.9438 -0.382698 -0.923874 1 0.5 0 1
171 1 58.8246 67.9395 0 138.091 -11.3265 0 503.698 813.43 -26.3112 27.6025 0.56413 -0.825686 1 0.5 0 1
172 1 6.72606 56.581 0 6.72606 -22.685 0 -471.055 -254.515 173.523 -50.9268 -0.0741729 -0.997245 1 0.5 0 1
173 1 35.2845 25.6381 0 35.2845 -53.6279 0 237.332 363.721 75.3112 -65.7892 0.753112 -0.657892 1 0.5 0 1
174 1 8.52733 50.7448 0 8.52733 50.7448 0 -24.7409 230.2 2.65786 -79.7059 -0.142747 0.989759 1 0.5 0 1
175 1 53.187 61.679 0 -26.079 -17.587 0 321.022 654.397 135.006 -65.2435 -0.354624 -0.935009 1 0.5 0 1
176 1 10.0963 49.4825 0 10.0963 49.4825 0 51.4099 86.6971 60.6773 59.3998 0.890408 0.455164 1 0.5 0 1
177 1 3.16902 67.835 0 3.16902 67.835 0 -310.231 -356.754 145.904 2.98942 -0.465428 0.885086 1 0.5 0 1
178 1 57.13 27.8072 0 -22.136 107.073 0 -183.092 247.242 -78.9996 -158.24 -0.705642 0.708569 1 0.5 0 1
179 1 3.32269 54.106 0 3.32269 -25.16 0 452.006 -111.246 -176.088 -109.697 0.999216 -0.0395867 1 0.5 0 1
180 1 73.4008 40.3755 0 73.4008 40.3755 0 581.784 -234.168 87.441 135.013 -0.72934 0.684151 1 0.5 0 1
181 1 63.3014 14.9102 0 63.3014 14.9102 0 -301.249 -421.357 112.152 24.3529 -0.125363 0.992111 1 0.5 0 1
182 1 13.6649 64.1785 0 -65.6011 64.1785 0 382.2 -448.071 -73.6086 100.903 -0.979215 -0.202827 1 0.5 0 1
183 1 58.8239 56.0972 0 58.8239 -23.1688 0 55.7642 -431.377 -178.351 98.2245 -0.886779 0.462194 1 0.5 0 1
184 1 63.3752 41.4825 0 63.3752 41.4825 0 -335.177 -19.1888 13.6195 -55.5922 0.580453 -0.814293 1 0.5 0 1
185 1 62.3429 9.88735 0 -16.9231 9.88735 0 116.363 87.1324 -42.4802 59.6686 -0.329319 0.944219 1 0.5 0 1
186 1 58.1993 11.7577 0 -21.0667 91.0237 0 -437.012 32.8188 -71.7714 50.7596 -0.650953 0.759118 1 0.5 0 1
187 1 55.5295 33.6239 0 -23.7365 112.89 0 -1293.81 673.571 137.049 -243.668 -0.536043 0.844191 1 0.5 0 1
188 1 63.2419 13.864 0 142.508 93.13 0 -216.848 100.197 77.2185 22.4664 0.649672 0.760215 1 0.5 0 1
189 1 3.01237 72.7347 0 3.01237 72.7347 0 -426.26 -222.813 14.497 97.9079 -0.985254 -0.171097 1 0.5 0 1
190 1 19.5667 52.6677 0 -59.6993 52.6677 0 -574.275 -91.8563 48.1304 -25.3292 -0.575978 0.817465 1 0.5 0 1
191 1 66.1043 16.5725 0 145.37 16.5725 0 138.497 -470.895 -123.925 12.1221 -0.29681 -0.954936 1 0.5 0 1
192 1 58.8405 36.4578 0 58.8405 36.4578 0 -61.5253 243.899 55.4407 -280.462 0.805078 0.593169 1 0.5 0 1
193 1 74.0188 11.694 0 -5.24723 90.96 0 35.5834 -678.196 -57.0895 180.313 -0.819361 0.573278 1 0.5 0 1
194 1 28.9146 56.1556 0 28.9146 -23.1104 0 -479.962 -622.547 39.8025 -91.7374 0.398025 -0.917374 1 0.5 0 1
195 1 53.8237 29.3882 0 53.8237 29.3882 0 590.481 -957.067 267.332 29.4384 -0.980255 -0.197739 1 0.5 0 1
196 1 58.6718 39.9358 0 58.6718 39.9358 0 453.768 116.214 10.9376 -293.477 -0.444297 -0.89588 1 0.5 0 1
197 1 70.9208 60.2319 0 -8.34524 60.2319 0 618.165 317.696 46.5028 124.856 0.765807 0.643071 1 0.5 0 1
198 1 73.2818 43.9776 0 73.2818 43.9776 0 121.743 440.514 -153.258 -64.3533 -0.825704 0.564104 1 0.5 0 1
199 1 64.3941 67.3743 0 -14.8719 -11.8917 0 55.0246 -27.8767 -81.0103 -43.1144 -0.135536 -0.990772 1 0.5 0 1
200 1 2.6006 15.8702 0 81.8666 95.1362 0 11.383 -305.31 -97.6602 -5.91922 0.590283 0.807197 1 0.5 0 1
201 1 25.7357 66.9274 0 25.7357 66.9274 0 -284.527 59.279 -97.3489 22.8734 -0.973489 0.228734 1 0.5 0 1
202 1 56.7592 58.1356 0 -22.5068 -21.1304 0 -450.351 357.46 -111.342 200.881 0.806414 -0.591351 1 0.5 0 1
203 1 24.1831 26.4446 0 -55.0829 105.711 0 -22.3953 -768.256 -45.1145 91.867 -0.508472 0.861079 1 0.5 0 1
204 1 64.4827 62.6506 0 64.4827 -16.6154 0 137.694 5.25209 -80.4352 21.5829 0.237962 -0.971274 1 0.5 0 1
205 1 23.7129 17.1582 0 23.7129 96.4242 0 239.788 38.7104 85.3736 52.0706 0.853736 0.520706 1 0.5 0 1
206 1 1.76006 58.0389 0 1.76006 -21.2271 0 65.6283 -331.173 -34.8196 84.5895 -0.664713 0.747099 1 0.5 0 1
207 1 58.15 63.0874 0 58.15 63.0874 0 -964.357 -130.928 83.0912 -58.0535 0.0191922 -0.999816 1 0.5 0 1
208 1 8.89178 31.8738 0 8.89178 31.8738 0 389.888 138.132 6.95559 208.731 -0.666297 0.745686 1 0.5 0 1
209 1 53.339 26.4611 0 53.339 105.727 0 428.401 218.823 70.3916 -26.4285 0.976168 0.217018 1 0.5 0 1
210 1 65.8785 61.3241 0 -13.3875 61.3241 0 198.276 -549.711 -127.634 164.686 -0.6629 0.748708 1 0.5 0 1
211 1 60.7858 41.4806 0 60.7858 41.4806 0 156.287 -534.216 -38.7319 155.144 -0.401113 -0.916029 1 0.5 0 1
212 1 45.4566 25.1835 0 203.989 25.1835 0 782.889 276.856 -37.3515 25.7712 -0.743879 0.668314 1 0.5 0 1
213 1 69.2659 64.2301 0 69.2659 64.2301 0 693.777 -580.415 -164.38 -32.1859 0.963821 0.266551 1 0.5 0 1
214 1 15.5827 75.13 0 15.5827 75.13 0 -692.744 12.4005 -55.5638 -94.998 -0.268674 -0.963231 1 0.5 0 1
215 1 55.3619 59.5224 0 55.3619 -19.7436 0 -708.252 456.633 -27.2534 -63.3049 0.311014 -0.950405 1 0.5 0 1
216 1 14.5873 46.176 0 14.5873 125.442 0 381.116 788.012 -127.627 62.9321 -0.620575 0.784147 1 0.5 0 1
217 1 56.3621 71.9932 0 135.628 71.9932 0 595.324 305.942 95.4564 29.8007 0.954564 0.298007 1 0.5 0 1
218 1 46.3446 47.4436 0 46.3446 47.4436 0 -301.512 86.8568 -26.2194 90.2669 -0.929174 -0.369644 1 0.5 0 1
219 1 53.4484 43.5031 0 53.4484 43.5031 0 386.824 -305.114 13.1389 53.8344 -0.780011 -0.625766 1 0.5 0 1
220 1 59.5917 67.0491 0 59.5917 -91.4829 0 381.391 209.634 120.603 -138.021 0.999318 -0.0369136 1 0.5 0 1
221 1 51.3091 17.1849 0 -27.9569 175.717 0 101.603 119.441 -33.6509 94.168 -0.336509 0.94168 1 0.5 0 1
222 1 35.8323 33.9971 0 35.8323 33.9971 0 462.945 -176.411 78.4024 62.0731 0.784024 0.620731 1 0.5 0 1
223 1 71.5234 36.0252 0 -7.74262 36.0252 0 -421.291 518.272 29.5285 -70.8973 -0.66096 -0.750421 1 0.5 0 1
224 1 75.4412 60.8097 0 -3.82478 60.8097 0 -640.041 228.547 34.5366 70.5039 -0.888616 -0.458651 1 0.5 0 1
225 1 14.4164 28.1362 0 93.6824 -51.1298 0 92.1176 404.555 129.388 -181.776 -0.982438 0.186587 1 0.5 0 1
226 1 74.2357 6.58912 0 -5.0303 6.58912 0 -1018.14 -221.36 36.3419 68.4042 -0.555553 0.831481 1 0.5 0 1
227 1 1.02903 36.3809 0 80.295 36.3809 0 -490.514 -278.634 -170.85 -210.772 -0.991577 0.12952 1 0.5 0 1
228 1 14.4254 63.4858 0 -64.8406 -15.7802 0 438.017 -235.184 -22.6394 -71.6502 -0.508367 -0.86114 1 0.5 0 1
229 1 51.4967 39.2799 0 51.4967 39.2799 0 289.538 627.594 28.9425 -153.951 -0.999559 -0.0296982 1 0.5 0 1
230 1 52.0057 37.7155 0 52.0057 116.981 0 -758.751 -637.297 83.9438 -178.761 -0.66077 0.750588 1 0.5 0 1
231 1 5.2693 22.3105 0 5.2693 101.576 0 -100.815 -220.265 -27.6691 46.4334 -0.839647 0.543132 1 0.5 0 1
232 1 47.2646 24.0475 0 47.2646 -55.2185 0 -264.696 327.541 -39.9839 -11.654 0.929853 0.367931 1 0.5 0 1
233 1 6.29296 44.5994 0 6.29296 44.5994 0 705.297 204.576 -163.466 -142.66 -0.609542 0.792754 1 0.5 0 1
234 1 46.9366 68.9512 0 46.9366 -10.3148 0 -364.018 29.8162 84.2133 53.927 0.842133 0.53927 1 0.5 0 1
235 1 38.6424 43.2235 0 38.6424 122.49 0 -272.608 -945.128 52.5688 86.7648 0.477547 0.878606 1 0.5 0 1
236 1 53.9254 7.20608 0 133.191 7.20608 0 -13.6418 -473.88 24.784 -96.8801 0.24784 -0.968801 1 0.5 0 1
237 1 69.502 69.8811 0 69.502 -9.38489 0 704.522 -153.15 -117.73 152.4 -0.451487 -0.892278 1 0.5 0 1
238 1 71.7619 21.0205 0 71.7619 100.287 0 112.447 259.761 -26.5369 105.183 -0.835804 0.549028 1 0.5 0 1
239 1 3.02918 41.6189 0 82.2952 41.6189 0 -539.796 -225.201 -3.07562 -60.0969 0.608837 -0.793296 1 0.5 0 1
240 1 72.9647 16.8941 0 72.9647 16.8941 0 -335.106 417.1 50.7265 5.56777 0.873015 -0.487694 1 0.5 0 1
241 1 48.101 36.2796 0 48.101 36.2796 0 -481 -31.5748 -121.093 -206.651 -0.406498 -0.913652 1 0.5 0 1
242 1 1.97495 62.5614 0 81.241 -16.7046 0 -94.7956 -584.964 -6.0249 127.061 0.828488 0.560007 1 0.5 0 1
243 1 77.6405 73.7561 0 -80.8915 73.7561 0 -391.999 534.956 -68.9659 -45.1301 -0.764474 -0.644654 1 0.5 0 1
244 1 61.0732 24.5741 0 61.0732 103.84 0 -223.576 529.525 236.901 -63.1686 0.98776 0.155984 1 0.5 0 1
245 1 56.5512 49.9279 0 56.5512 49.9279 0 149.348 99.1208 -115.08 117.609 -0.833109 -0.553109 1 0.5 0 1
246 1 49.1239 40.2057 0 49.1239 40.2057 0 -39.5835 432.939 -181.555 167.593 -0.012471 -0.999922 1 0.5 0 1
247 1 66.7529 53.5229 0 66.7529 -25.7431 0 -418.032 358.039 -20.0646 155.598 -0.33081 -0.943697 1 0.5 0 1
248 1 18.4338 61.1963 0 -60.8322 61.1963 0 276.12 -377.012 62.4354 -91.1432 0.377317 -0.926084 1 0.5 0 1
249 1 28.5432 63.6823 0 107.809 -15.5837 0 -571.257 -288.338 91.7395 -39.7977 0.917395 -0.397977 1 0.5 0 1
250 1 27.176 4.80925 0 185.708 84.0752 0 72.9065 945.201 99.7243 -7.42105 0.997243 -0.0742105 1 0.5 0 1
251 1 47.6609 10.5119 0 47.6609 169.044 0 461.66 432.166 98.6929 16.1155 0.986929 0.161155 1 0.5 0 1
252 1 60.5177 20.6082 0 60.5177 99.8742 0 -281.599 520.454 127.072 11.2443 0.0662172 0.997805 1 0.5 0 1
253 1 17.0353 47.6801 0 17.0353 47.6801 0 -335.321 69.121 146.276 58.1201 -0.997663 -0.0683215 1 0.5 0 1
254 1 47.493 33.3472 0 47.493 112.613 0 -54.5716 -715.284 52.879 -11.0638 0.998728 -0.0504151 1 0.5 0 1
255 1 1.31442 33.8083 0 80.5804 113.074 0 817.104 570.431 141.725 -1.46837 0.0649494 0.997889 1 0.5 0 1
256 1 68.4862 41.354 0 -10.7798 41.354 0 63.3564 -197.451 234.101 247.716 0.42579 -0.904822 1 0.5 0 1
257 1 7.35807 37.6904 0 7.35807 116.956 0 141.549 516.482 145.715 54.6772 -0.462485 -0.886627 1 0.5 0 1
258 1 7.76775 25.8772 0 7.76775 -53.3888 0 -645.423 -96.6849 91.5341 39.1313 0.99472 0.102626 1 0.5 0 1
259 1 46.7624 61.1701 0 46.7624 61.1701 0 33.3075 -88.9704 -43.7248 -89.9341 -0.437248 -0.899341 1 0.5 0 1
260 1 69.1309 67.8894 0 148.397 -11.3766 0 -1115.17 -366.036 63.7464 -36.0749 0.84726 -0.531178 1 0.5 0 1
261 1 68.8679 76.7408 0 -10.3981 -2.52522 0 -822.658 311.764 91.9935 39.207 0.919935 0.39207 1 0.5 0 1
262 1 56.9983 59.1479 0 136.264 -20.1181 0 629.442 -499.646 -99.2571 -192.035 0.266479 -0.963841 1 0.5 0 1
263 1 5.34916 15.9888 0 -73.9168 -63.2772 0 661.732 289.716 70.527 -29.7782 -0.918575 -0.395247 1 0.5 0 1
264 1 25.4388 48.6467 0 183.971 -30.6193 0 10.9666 -37.9426 -24.7748 -43.2947 -0.738775 -0.673953 1 0.5 0 1
265 1 52.7642 28.0713 0 52.7642 107.337 0 -457.09 637.692 -82.3887 177.071 0.895635 0.44479 1 0.5 0 1
266 1 56.0702 51.5695 0 56.0702 51.5695 0 -509.812 -548.725 103.097 7.80865 0.576919 0.816801 1 0.5 0 1
267 1 72.3057 62.501 0 -6.9603 -16.765 0 171.884 330.905 40.2035 -31.548 -0.818432 -0.574603 1 0.5 0 1
268 1 66.3454 59.7045 0 66.3454 59.7045 0 -685.14 167.157 20.7988 84.8129 0.997276 -0.0737651 1 0.5 0 1
269 1 15.0895 53.5239 0 94.3555 53.5239 0 -531.079 514.265 51.1138 -33.1976 -0.851724 0.523991 1 0.5 0 1
270 1 7.55032 0.471531 0 86.8163 0.471531 0 -600.132 -463.877 -69.4659 64.9247 -0.926783 0.375596 1 0.5 0 1
271 1 66.087 14.4064 0 66.087 14.4064 0 -75.7763 -218.158 -47.1579 -79.8123 0.83557 0.549385 1 0.5 0 1
272 1 51.038 37.3481 0 51.038 37.3481 0 -52.8591 127.449 33.5922 -73.2502 0.998015 0.0629746 1 0.5 0 1
273 1 59.9345 49.2312 0 59.9345 49.2312 0 -155.556 358.681 286.49 -168.519 0.529474 0.848326 1 0.5 0 1
274 1 57.1182 13.9692 0 57.1182 13.9692 0 416.467 -22.2494 -20.7475 -18.5475 0.956363 0.29218 1 0.5 0 1
275 1 6.88242 60.5112 0 86.1484 -18.7548 0 405.502 244.018 -178.821 143.59 -0.416012 0.909359 1 0.5 0 1
276 1 57.9393 44.151 0 57.9393 44.151 0 310.29 -81.6831 12.7717 -5.03127 0.157872 0.98746 1 0.5 0 1
277 1 50.1761 17.1234 0 -29.0899 17.1234 0 -276.888 609.04 95.5791 -49.5487 0.902208 -0.431301 1 0.5 0 1
278 1 9.87927 32.1713 0 -69.3867 111.437 0 324.549 160.856 -241.319 129.768 -0.327853 -0.944729 1 0.5 0 1
279 1 34.1464 75.5328 0 113.412 -82.9992 0 316.69 238.557 -7.2693 -51.7504 -0.062611 -0.998038 1 0.5 0 1
280 1 22.3989 13.5507 0 -56.8671 -65.7153 0 -407.995 -223.701 -99.5241 9.74443 -0.995241 0.0974443 1 0.5 0 1
281 1 68.0846 55.8063 0 68.0846 55.8063 0 32.6774 820.346 -42.6728 -103.625 -0.398319 0.917247 1 0.5 0 1
282 1 47.8824 46.142 0 47.8824 -33.124 0 -411.8 380.116 95.1894 74.1566 0.240179 -0.970729 1 0.5 0 1
283 1 69.05 30.0422 0 -10.216 109.308 0 -333.376 116.035 265.368 19.9389 -0.988702 0.149897 1 0.5 0 1
284 1 6.41654 28.3 0 6.41654 107.566 0 329.824 -7.94745 105.882 -145.177 0.323633 0.946183 1 0.5 0 1
285 1 65.3641 33.4134 0 65.3641 33.4134 0 -235.526 -24.629 359.696 -203.706 0.800283 0.599622 1 0.5 0 1