ITEM: TIMESTEP
10000
ITEM: NUMBER OF ATOMS
4000
ITEM: BOX BOUNDS pp pp pp
0.0000000000000000e+00 7.9266000000000005e+01
0.0000000000000000e+00 7.9266000000000005e+01
-5.0000000000000000e-01 5.0000000000000000e-01
ITEM: ATOMS id type x y z xu yu zu vx vy fx fy mux muy mu radius omegaz mass
1 1 31.4807 46.5586 0 31.4807 46.5586 0 -194.073 675.436 93.7414 -55.0405 0.992942 0.1186 1 0.5 0 1
2 1 41.4285 24.0997 0 41.4285 24.0997 0 361.279 100.02 -90.8074 -36.7986 -0.89249 -0.451067 1 0.5 0 1
3 1 48.6565 33.1755 0 48.6565 33.1755 0 1096.51 595.138 -70.1821 36.3686 -0.93343 -0.35876 1 0.5 0 1
4 1 62.6591 73.191 0 62.6591 73.191 0 217.169 396.294 -33.0704 94.3734 -0.330704 0.943734 1 0.5 0 1
5 1 56.2216 50.1785 0 56.2216 50.1785 0 99.6524 -388.72 -295.24 -50.8901 -0.153053 -0.988218 1 0.5 0 1
6 1 55.5351 31.1221 0 55.5351 31.1221 0 1204.6 -317.571 44.8676 52.0978 0.486793 -0.873517 1 0.5 0 1
7 1 46.6616 41.3112 0 46.6616 41.3112 0 -110.699 -262.751 94.9665 -31.3268 0.949665 -0.313268 1 0.5 0 1
8 1 38.6705 27.451 0 38.6705 27.451 0 -205.497 -870.384 -36.3153 -101.392 -0.643169 -0.765724 1 0.5 0 1
9 1 30.2797 37.1355 0 30.2797 37.1355 0 216.945 -141.499 105.385 44.4792 0.888296 -0.459272 1 0.5 0 1
10 1 56.384 75.7053 0 56.384 75.7053 0 -479.146 -288.07 -47.7208 7.31943 0.495714 -0.868486 1 0.5 0 1
11 1 22.3598 50.105 0 22.3598 50.105 0 111.143 -541.822 -73.905 67.3651 -0.73905 0.673651 1 0.5 0 1
12 1 56.5689 46.9644 0 56.5689 46.9644 0 266.049 77.3158 29.6782 3.10697 -0.0966411 0.995319 1 0.5 0 1
13 1 33.4147 72.0489 0 33.4147 72.0489 0 201.003 -191.733 -35.1381 -93.6232 -0.351381 -0.936232 1 0.5 0 1
14 1 77.4556 65.7536 0 -1.81039 65.7536 0 99.1315 -107.804 -12.1786 -76.3171 -0.169643 -0.985506 1 0.5 0 1
15 1 68.6472 51.8438 0 68.6472 51.8438 0 633.16 288.822 -128.817 -135.456 -0.960445 0.27847 1 0.5 0 1
16 1 5.18871 11.5559 0 5.18871 11.5559 0 207.399 -62.0112 -2.69327 -138.957 -0.892441 -0.451164 1 0.5 0 1
17 1 52.0278 34.2833 0 52.0278 34.2833 0 -182.251 -371.443 -44.8024 87.4652 -0.905263 0.424851 1 0.5 0 1
18 1 48.8319 43.4279 0 48.8319 43.4279 0 133.084 138.899 -23.8433 10.5063 -0.958799 -0.284086 1 0.5 0 1
19 1 30.2654 64.0611 0 30.2654 64.0611 0 98.7778 208.242 33.9851 11.5668 -0.364869 -0.931059 1 0.5 0 1
20 1 13.2539 34.0268 0 13.2539 34.0268 0 -778.434 223.193 56.283 82.6573 0.56283 0.826573 1 0.5 0 1
21 1 57.7968 77.4343 0 57.7968 -1.83169 0 109.034 -166.878 -55.9176 -51.5999 -0.0642467 -0.997934 1 0.5 0 1
22 1 31.5595 33.2095 0 31.5595 33.2095 0 308.46 -323.507 7.79226 -32.3634 0.985541 -0.169439 1 0.5 0 1
23 1 41.9068 32.4187 0 41.9068 32.4187 0 -118.963 -461.709 -46.1507 -55.4394 -0.366305 -0.930495 1 0.5 0 1
24 1 50.0234 1.04455 0 50.0234 1.04455 0 579.387 38.4541 34.944 -90.9454 0.822194 -0.569207 1 0.5 0 1
25 1 25.6017 2.96092 0 25.6017 2.96092 0 -291.328 193.382 -73.061 18.0364 -0.983906 0.178689 1 0.5 0 1
26 1 31.7281 9.38218 0 31.7281 9.38218 0 -504.214 -107.351 -36.7529 -82.4408 0.497014 -0.867743 1 0.5 0 1
27 1 45.7093 8.70949 0 45.7093 8.70949 0 154.169 453.447 -8.32272 58.3469 0.948923 -0.315507 1 0.5 0 1
28 1 34.3045 29.105 0 34.3045 29.105 0 327.282 -152.358 14.2916 -95.038 0.901712 0.432337 1 0.5 0 1
29 1 2.02375 11.6136 0 2.02375 11.6136 0 212.554 -161.609 -3.07593 -63.2945 0.169736 0.98549 1 0.5 0 1
30 1 40.5977 0.774383 0 40.5977 80.0404 0 -258.71 -1562.49 11.9518 76.08 -0.0645378 0.997915 1 0.5 0 1
31 1 25.9201 62.6968 0 25.9201 62.6968 0 847.358 57.8809 48.3736 -25.6648 0.891946 -0.452142 1 0.5 0 1
32 1 20.9882 14.1217 0 20.9882 14.1217 0 481.255 -326.469 105.752 28.4002 0.728789 0.684738 1 0.5 0 1
33 1 30.9131 1.43575 0 30.9131 1.43575 0 248.631 -88.6066 11.3384 -73.2621 -0.165907 -0.986141 1 0.5 0 1
34 1 69.6776 40.5474 0 69.6776 40.5474 0 -652.989 641.571 -13.6651 -86.6482 0.557169 -0.830399 1 0.5 0 1
35 1 39.9742 69.908 0 39.9742 69.908 0 860.081 -316.867 36.4594 15.8831 -0.230097 0.973168 1 0.5 0 1
36 1 35.6629 47.9923 0 35.6629 47.9923 0 147.357 449.954 57.0864 -41.9978 0.361179 -0.932497 1 0.5 0 1
37 1 53.6302 36.7146 0 53.6302 36.7146 0 151.4 -481.178 10.8714 39.8197 0.988656 0.150195 1 0.5 0 1
38 1 6.17889 25.5554 0 85.4449 25.5554 0 16.3593 422.456 65.3754 6.10497 0.999154 -0.041132 1 0.5 0 1
39 1 27.6973 30.2798 0 27.6973 30.2798 0 -278.595 690.835 6.83081 -47.1837 -0.342166 -0.93964 1 0.5 0 1
40 1 5.29218 7.13725 0 5.29218 7.13725 0 -14.1696 7.54794 5.41129 -68.6157 -0.902568 -0.430548 1 0.5 0 1
41 1 53.0553 76.2741 0 53.0553 76.2741 0 381.988 141.69 -20.6987 -76.7044 0.954172 -0.29926 1 0.5 0 1
42 1 34.4839 73.5396 0 34.4839 73.5396 0 524.441 774.632 15.0812 -109.889 -0.734394 -0.678723 1 0.5 0 1
43 1 22.0702 52.8035 0 22.0702 52.8035 0 166.577 -393.73 -31.9001 8.32338 -0.823118 0.567871 1 0.5 0 1
44 1 75.6787 67.8915 0 75.6787 67.8915 0 -730.45 -536.782 3.4718 47.0272 -0.0725885 0.997362 1 0.5 0 1
45 1 29.5302 67.7656 0 29.5302 67.7656 0 897.854 539.536 32.5313 -90.2737 -0.671657 0.740862 1 0.5 0 1
46 1 47.4716 17.6356 0 47.4716 17.6356 0 302.367 533.203 -1.01519 60.9254 -0.926868 -0.375389 1 0.5 0 1
47 1 13.8184 21.1754 0 13.8184 21.1754 0 -5.49955 -94.0261 46.056 90.0742 -0.0921427 -0.995746 1 0.5 0 1
48 1 68.4791 54.6956 0 68.4791 54.6956 0 31.8568 -79.2107 -106.483 -106.495 -0.925171 -0.379551 1 0.5 0 1
49 1 58.3585 70.6706 0 58.3585 70.6706 0 -160.096 664.838 -26.6989 27.622 -0.39725 0.91771 1 0.5 0 1
50 1 61.1464 32.685 0 61.1464 32.685 0 -507.745 -120.598 27.5451 -36.7857 0.963495 0.267725 1 0.5 0 1
51 1 25.2852 11.5842 0 25.2852 11.5842 0 400.315 -96.4582 -43.6402 -71.9908 0.412067 0.911153 1 0.5 0 1
52 1 61.5602 10.5526 0 61.5602 10.5526 0 342.715 -133.084 84.2503 107.842 0.809417 0.587234 1 0.5 0 1
53 1 46.2019 49.3628 0 46.2019 49.3628 0 172.586 -460.933 -96.1304 147.189 -0.134817 0.99087 1 0.5 0 1
54 1 26.7576 39.9407 0 26.7576 39.9407 0 -125.257 257.225 127.63 50.4406 0.886116 -0.463464 1 0.5 0 1
55 1 70.6663 72.9361 0 70.6663 72.9361 0 653.401 -28.1844 15.3337 13.5604 0.113214 0.993571 1 0.5 0 1
56 1 32.7923 74.7954 0 32.7923 74.7954 0 13.0352 575.814 36.7813 -69.9118 0.440749 -0.89763 1 0.5 0 1
57 1 12.5013 59.3865 0 12.5013 59.3865 0 719.488 709.507 4.77732 -37.2575 0.363454 0.931612 1 0.5 0 1
58 1 38.5941 13.4799 0 38.5941 13.4799 0 -22.2496 239.746 -28.4856 -47.194 -0.980577 -0.196136 1 0.5 0 1
59 1 39.6289 3.68927 0 39.6289 3.68927 0 149.897 256.077 71.3997 21.0014 0.991878 0.127192 1 0.5 0 1
60 1 64.5774 46.259 0 64.5774 46.259 0 -796.025 -761.903 -25.995 -96.5622 -0.25995 -0.965622 1 0.5 0 1
61 1 56.7718 54.9204 0 56.7718 54.9204 0 391.19 242.361 0.704618 -50.7535 0.1198 -0.992798 1 0.5 0 1
62 1 43.2652 49.6327 0 43.2652 49.6327 0 281.787 146.023 -24.2999 -22.4718 0.40274 -0.915315 1 0.5 0 1
63 1 1.99988 66.1689 0 1.99988 66.1689 0 -324.892 966.621 24.8033 -100.197 -0.95655 -0.291568 1 0.5 0 1
64 1 47.2723 29.266 0 47.2723 29.266 0 -35.3399 -256.118 -31.9787 -12.8501 0.461275 0.887257 1 0.5 0 1
65 1 61.7588 42.9033 0 61.7588 42.9033 0 -50.2338 -792.032 17.3863 27.8822 0.860473 0.509496 1 0.5 0 1
66 1 31.8557 75.718 0 31.8557 75.718 0 431.924 -1010.74 96.9503 -24.5081 0.969503 -0.245081 1 0.5 0 1
67 1 22.8674 13.3366 0 22.8674 13.3366 0 -290.532 493.194 6.80622 49.1235 -0.160695 0.987004 1 0.5 0 1
68 1 19.5554 23.0132 0 19.5554 23.0132 0 -734.375 -611.745 -2.58791 -75.5749 -0.400151 0.916449 1 0.5 0 1
69 1 59.0778 73.7427 0 59.0778 73.7427 0 409.093 -577.849 -60.0505 79.9621 -0.600505 0.799621 1 0.5 0 1
70 1 27.8244 53.9528 0 27.8244 53.9528 0 195.084 178.728 90.4817 -4.62447 0.0998834 0.994999 1 0.5 0 1
71 1 56.3771 49.1281 0 56.3771 49.1281 0 -352.357 -596.091 13.8823 67.8317 -0.998781 -0.0493629 1 0.5 0 1
72 1 26.1957 52.7273 0 26.1957 52.7273 0 1095.58 721.926 -49.8972 45.9861 -0.767465 0.641091 1 0.5 0 1
73 1 71.5775 40.2996 0 71.5775 40.2996 0 -386.326 -122.836 50.0615 33.7358 -0.213998 -0.976834 1 0.5 0 1
74 1 50.2799 62.8206 0 50.2799 62.8206 0 1009.22 44.0796 31.2557 94.9899 0.312557 0.949899 1 0.5 0 1
75 1 17.3386 38.5647 0 17.3386 38.5647 0 1456.25 -502.742 -112.494 93.0429 -0.957802 -0.287429 1 0.5 0 1
76 1 33.6616 17.0482 0 33.6616 17.0482 0 210.757 285.164 -12.9243 27.0384 -0.593895 0.804543 1 0.5 0 1
77 1 18.3127 9.95349 0 18.3127 9.95349 0 -357.022 -558.837 -53.7958 -2.2082 -0.998357 -0.0572921 1 0.5 0 1
78 1 49.1081 52.015 0 49.1081 52.015 0 -128.365 -1043.05 -61.2735 22.1169 -0.381762 -0.924261 1 0.5 0 1
79 1 60.2088 75.2622 0 60.2088 75.2622 0 -516.534 -37.9698 -74.5382 5.54645 -0.445358 0.895352 1 0.5 0 1
80 1 41.7639 78.5287 0 41.7639 -0.737301 0 365.539 549.801 -46.4638 16.349 0.222002 -0.975046 1 0.5 0 1
81 1 77.0137 24.0517 0 77.0137 24.0517 0 246.519 18.7638 38.196 42.7808 0.918173 0.396179 1 0.5 0 1
82 1 19.9711 13.7162 0 19.9711 13.7162 0 269.369 1052.38 10.9131 76.6757 0.407516 0.913198 1 0.5 0 1
83 1 48.6505 24.5687 0 48.6505 24.5687 0 554.014 -558.235 4.5796 142.284 -0.616651 0.787236 1 0.5 0 1
84 1 11.5616 31.9291 0 11.5616 31.9291 0 44.7937 212.904 45.3194 -6.94234 -0.84155 0.54018 1 0.5 0 1
85 1 52.1558 20.4738 0 52.1558 20.4738 0 190.86 -295.926 -40.202 -19.2274 -0.711957 -0.702223 1 0.5 0 1
86 1 45.3642 25.0901 0 45.3642 25.0901 0 -82.5059 -481.48 -48.6396 -10.2559 -0.285337 -0.958427 1 0.5 0 1
87 1 51.033 25.5835 0 51.033 25.5835 0 198.878 -334.606 40.9323 78.0648 -0.0285848 0.999591 1 0.5 0 1
88 1 58.0083 10.8027 0 58.0083 10.8027 0 432.163 45.0092 84.6784 53.1938 0.846784 0.531938 1 0.5 0 1
89 1 20.5648 37.8765 0 20.5648 37.8765 0 -952.085 -264.126 10.2052 105.743 0.597303 0.802015 1 0.5 0 1
90 1 21.2982 64.613 0 21.2982 64.613 0 -139.751 -382.587 -26.7381 -47.3477 0.699302 -0.714826 1 0.5 0 1
91 1 14.9361 11.0872 0 14.9361 11.0872 0 365.71 -66.1786 43.3508 -38.5182 0.749333 -0.662193 1 0.5 0 1
92 1 50.9294 49.3783 0 50.9294 49.3783 0 738.372 -65.7025 26.3861 -132.499 -0.56249 -0.826804 1 0.5 0 1
93 1 16.3706 33.4023 0 16.3706 33.4023 0 -438.032 58.4488 55.4377 63.6517 0.578847 0.815436 1 0.5 0 1
94 1 72.1206 3.51874 0 72.1206 3.51874 0 75.1536 327.77 24.5134 82.6287 -0.486344 0.873768 1 0.5 0 1
95 1 49.3502 44.5654 0 49.3502 44.5654 0 -12.4521 298.633 0.938773 -3.86012 0.963029 -0.269399 1 0.5 0 1
96 1 42.2544 39.8133 0 42.2544 39.8133 0 -704.825 -210.351 -36.9746 -18.2677 0.655192 -0.755462 1 0.5 0 1
97 1 66.9807 37.298 0 66.9807 37.298 0 152.888 -437.227 12.9901 19.0789 -0.884218 -0.467074 1 0.5 0 1
98 1 6.95298 71.3815 0 6.95298 71.3815 0 -502.151 -819.879 87.2582 67.415 -0.931825 0.362908 1 0.5 0 1
99 1 78.7696 18.424 0 78.7696 18.424 0 -108.88 -547.015 -68.8349 29.2959 -0.716613 -0.697471 1 0.5 0 1
100 1 63.3286 29.7934 0 63.3286 29.7934 0 438.865 -153.104 -20.2853 -10.14 0.811381 0.584517 1 0.5 0 1
101 1 35.2942 65.8997 0 35.2942 65.8997 0 -447.23 1035.62 110.35 -33.7718 0.572095 -0.820187 1 0.5 0 1
102 1 28.4769 25.1903 0 28.4769 25.1903 0 259.3 -1084.17 -1.75532 99.9846 -0.0175532 0.999846 1 0.5 0 1
103 1 45.4101 47.3306 0 45.4101 47.3306 0 115.361 -563.874 -62.8044 30.6603 -0.849146 0.528158 1 0.5 0 1
104 1 30.004 2.49411 0 30.004 81.7601 0 -349.559 -385.76 66.1906 74.9587 0.661906 0.749587 1 0.5 0 1
105 1 13.9295 8.20582 0 13.9295 8.20582 0 283.68 1068.53 -59.6041 18.4702 -0.873931 0.48605 1 0.5 0 1
106 1 58.5817 44.4302 0 58.5817 44.4302 0 687.723 232.628 -78.7184 61.6718 -0.787184 0.616718 1 0.5 0 1
107 1 63.1886 17.2308 0 63.1886 17.2308 0 -342.231 -389.808 -50.0021 -9.29047 -0.367283 0.930109 1 0.5 0 1
108 1 11.0978 70.8305 0 11.0978 70.8305 0 -227.824 446.545 184.374 -11.5512 0.394373 0.91895 1 0.5 0 1
109 1 26.0431 44.9593 0 26.0431 44.9593 0 297.473 310.562 -10.2855 -94.6638 -0.909218 -0.416321 1 0.5 0 1
110 1 14.9938 37.6855 0 14.9938 37.6855 0 463.806 132.068 -101.971 -61.1788 -0.999414 -0.0342315 1 0.5 0 1
111 1 19.4111 34.3733 0 19.4111 34.3733 0 49.5478 -41.8372 8.85203 -44.1184 -0.427912 -0.903821 1 0.5 0 1
112 1 35.6179 67.9743 0 35.6179 67.9743 0 211.763 497.666 -47.0005 -81.0987 0.382346 -0.924019 1 0.5 0 1
113 1 74.0816 3.23156 0 -5.18437 3.23156 0 -113.347 11.6566 -40.8828 -1.97577 -0.91564 -0.402 1 0.5 0 1
114 1 36.2575 32.3601 0 36.2575 32.3601 0 600.222 313.826 -1.71857 2.49906 -0.680567 -0.732686 1 0.5 0 1
115 1 22.5492 19.7127 0 22.5492 19.7127 0 -221.894 -122.891 70.3944 -59.7866 -0.368731 -0.929536 1 0.5 0 1
116 1 29.7309 32.8895 0 29.7309 32.8895 0 191.012 -457.429 -59.8666 44.3321 0.299342 -0.954146 1 0.5 0 1
117 1 56.8928 47.9708 0 56.8928 47.9708 0 571.13 -307.672 -4.59163 10.0095 0.387873 -0.921713 1 0.5 0 1
118 1 44.2478 69.2336 0 44.2478 69.2336 0 -192.499 -263.835 48.3803 -76.9517 0.855803 -0.517302 1 0.5 0 1
119 1 14.6529 17.2307 0 14.6529 17.2307 0 603.622 -301.583 -84.43 107.546 -0.781384 -0.62405 1 0.5 0 1
120 1 56.1681 20.0483 0 56.1681 20.0483 0 129.75 -312.32 22.3828 -39.4541 0.998256 -0.0590292 1 0.5 0 1
121 1 12.3617 34.8096 0 12.3617 34.8096 0 -736.721 -21.0884 -95.2601 -72.7331 -0.897953 0.44009 1 0.5 0 1
122 1 63.4548 43.6541 0 63.4548 43.6541 0 8.11437 51.7595 -36.6995 -2.1614 -0.909186 -0.41639 1 0.5 0 1
123 1 36.7559 29.2987 0 36.7559 29.2987 0 182.64 -641.986 62.6742 96.9479 -0.417422 0.908713 1 0.5 0 1
124 1 27.523 4.71211 0 27.523 4.71211 0 470.613 61.5823 -26.6969 47.1478 0.992917 0.118809 1 0.5 0 1
125 1 20.1404 28.2418 0 20.1404 28.2418 0 416.06 922.522 88.0486 59.176 -0.00194889 0.999998 1 0.5 0 1
126 1 64.8158 68.0033 0 64.8158 68.0033 0 -54.2916 236.419 32.874 -168.864 -0.935175 -0.354187 1 0.5 0 1
127 1 56.7201 61.1885 0 56.7201 61.1885 0 -157.302 78.8926 17.2017 98.0898 0.860151 0.51004 1 0.5 0 1
128 1 0.588097 65.8876 0 0.588097 65.8876 0 -343.724 -63.8324 15.9334 -7.31414 -0.375602 -0.926781 1 0.5 0 1
129 1 31.8078 17.9418 0 31.8078 17.9418 0 -469.346 -136.199 -28.197 -3.01436 0.936012 -0.351968 1 0.5 0 1
130 1 59.1755 3.02165 0 59.1755 3.02165 0 356.85 461.151 42.7922 -150.733 -0.679136 -0.734012 1 0.5 0 1
131 1 31.1905 52.9733 0 31.1905 52.9733 0 1245.58 248.77 -85.558 51.767 -0.85558 0.51767 1 0.5 0 1
132 1 48.6713 78.0283 0 48.6713 78.0283 0 -263.457 758.183 -67.1313 75.7162 -0.905377 0.424608 1 0.5 0 1
133 1 67.4111 68.4836 0 67.4111 68.4836 0 220.259 568.25 -13.4799 -84.7152 0.084202 0.996449 1 0.5 0 1
134 1 75.7358 50.5892 0 75.7358 50.5892 0 -235.079 -78.3219 -81.7712 26.4703 -0.151152 0.98851 1 0.5 0 1
135 1 74.0493 64.1518 0 74.0493 64.1518 0 -236.317 625.685 -64.7994 99.296 -0.3925 0.919752 1 0.5 0 1
136 1 3.87259 50.3008 0 3.87259 50.3008 0 43.2774 -624.38 53.3551 -30.9702 0.138011 0.990431 1 0.5 0 1
137 1 76.9193 20.2681 0 76.9193 20.2681 0 -172.166 -339.248 30.7395 145.481 0.873931 0.48605 1 0.5 0 1
138 1 66.0882 23.4533 0 66.0882 23.4533 0 595.882 -152.858 -28.8969 25.4723 -0.899241 0.437454 1 0.5 0 1
139 1 70.1676 10.1892 0 70.1676 10.1892 0 425.741 212.875 -59.796 32.6429 -0.889126 -0.457663 1 0.5 0 1
140 1 26.936 38.2799 0 26.936 38.2799 0 -604.913 49.7211 -8.77638 -72.1687 -0.237912 -0.971287 1 0.5 0 1
141 1 57.2688 31.6586 0 57.2688 31.6586 0 1152.15 -171.486 -99.8578 5.3315 -0.998578 0.053315 1 0.5 0 1
142 1 27.0571 36.4526 0 27.0571 36.4526 0 143.637 481.239 76.7928 64.0536 0.767928 0.640536 1 0.5 0 1
143 1 19.5912 53.4866 0 19.5912 53.4866 0 443.8 -160.617 61.9115 78.53 0.619115 0.7853 1 0.5 0 1
144 1 55.4426 24.5503 0 55.4426 24.5503 0 -42.177 -170.927 72.6536 31.0985 0.974058 -0.226298 1 0.5 0 1
145 1 67.5823 49.0357 0 67.5823 49.0357 0 -349.358 660.927 -1.96586 -16.85 0.791169 0.611597 1 0.5 0 1
146 1 46.2132 24.425 0 46.2132 24.425 0 721.931 -301.116 -43.1803 4.36926 -0.98244 0.186578 1 0.5 0 1
147 1 70.6522 48.6507 0 70.6522 48.6507 0 256.404 -1025.05 46.638 82.0878 0.498093 -0.867124 1 0.5 0 1
148 1 74.1809 38.8917 0 74.1809 38.8917 0 -139.783 -53.1286 -38.1213 -25.3271 -0.539441 -0.842023 1 0.5 0 1
149 1 53.0459 77.8508 0 53.0459 77.8508 0 6.29449 488.618 59.4896 55.5362 0.318703 0.947855 1 0.5 0 1
150 1 17.51 11.7586 0 17.51 11.7586 0 957.403 298.086 -171.032 -17.6332 -0.677675 0.735361 1 0.5 0 1
151 1 47.2039 9.85433 0 47.2039 9.85433 0 366.04 -248.39 -9.24801 -87.9611 0.513232 -0.85825 1 0.5 0 1
152 1 10.2329 0.622523 0 10.2329 79.8885 0 -675.521 228.934 -47.7507 -139.505 -0.667824 0.744319 1 0.5 0 1
153 1 46.8906 57.5289 0 46.8906 57.5289 0 70.7856 -151.715 28.7008 -12.2258 0.684919 0.72862 1 0.5 0 1
154 1 1.79991 70.8788 0 1.79991 70.8788 0 -299.504 -297.612 -33.3221 -72.1449 -0.296969 -0.954887 1 0.5 0 1
155 1 8.9816 8.82747 0 8.9816 8.82747 0 -3.49087 -369.356 -46.6059 -99.5958 -0.421312 -0.906916 1 0.5 0 1
156 1 70.5788 40.0486 0 70.5788 40.0486 0 -595.922 14.0451 -14.9029 42.3385 0.870835 0.491576 1 0.5 0 1
157 1 16.1391 25.2312 0 16.1391 25.2312 0 658.876 773.471 -49.7567 -71.0881 -0.541672 -0.84059 1 0.5 0 1
158 1 22.3732 32.5591 0 22.3732 32.5591 0 -439.568 -600.015 -138.626 -66.6449 -0.908833 -0.417159 1 0.5 0 1
159 1 70.111 59.8231 0 70.111 59.8231 0 -594.27 -67.5231 98.7531 -15.7425 0.987531 -0.157425 1 0.5 0 1
160 1 13.3604 58.0924 0 13.3604 58.0924 0 407.868 489.547 -2.68638 -99.9639 -0.0268638 -0.999639 1 0.5 0 1
161 1 16.0247 22.653 0 16.0247 22.653 0 283.816 251.17 32.0379 63.1803 -0.127013 0.991901 1 0.5 0 1
162 1 24.6771 71.9763 0 24.6771 71.9763 0 238.731 -406.139 -66.8906 -44.6745 -0.767922 -0.640543 1 0.5 0 1
163 1 40.2633 56.8242 0 40.2633 56.8242 0 854.605 -46.4596 -15.4945 8.35981 0.703045 -0.711145 1 0.5 0 1
164 1 21.7485 74.3941 0 21.7485 74.3941 0 35.6486 54.8723 42.9673 -90.2985 0.429673 -0.902985 1 0.5 0 1
165 1 44.3045 49.6985 0 44.3045 49.6985 0 -289.577 -5.35328 -109.837 -47.7554 0.284612 -0.958643 1 0.5 0 1
166 1 68.0338 15.994 0 68.0338 15.994 0 256.5 -271.199 94.7044 40.3726 -0.894998 -0.446071 1 0.5 0 1
167 1 24.5055 20.1565 0 24.5055 20.1565 0 -933.241 -81.2641 26.746 55.9432 0.259248 0.965811 1 0.5 0 1
168 1 42.0037 55.7828 0 42.0037 55.7828 0 -1125.15 480.275 46.5366 42.5398 0.999844 -0.0176388 1 0.5 0 1
169 1 49.9887 48.9097 0 49.9887 48.9097 0 -253.565 -10.8783 -39.0566 -17.9866 -0.668186 0.743994 1 0.5 0 1
170 1 66.2305 47.4163 0 66.2305 47.4163 0 738.836 -250.638 47.4241 -6.42501 0.494317 0.869281 1 0.5 0 1
171 1 71.3523 63.6264 0 71.3523 63.6264 0 -557.225 828.894 74.5728 -49.4571 0.763998 -0.645219 1 0.5 0 1
172 1 57.7383 0.618288 0 57.7383 0.618288 0 673.945 545.645 121.982 18.5952 -0.731684 -0.681644 1 0.5 0 1
173 1 46.2766 53.4739 0 46.2766 53.4739 0 200.485 -274.826 76.3216 -64.6144 0.763216 -0.646144 1 0.5 0 1
174 1 48.8111 26.4777 0 48.8111 26.4777 0 -818.656 67.4337 -112.039 27.9158 -0.903951 -0.427637 1 0.5 0 1
175 1 13.1787 7.17667 0 13.1787 7.17667 0 -116.649 -158.757 15.9512 70.8285 0.448627 -0.893719 1 0.5 0 1
176 1 58.7267 55.7261 0 58.7267 55.7261 0 -483.689 683.402 -79.597 -60.5336 -0.79597 -0.605336 1 0.5 0 1
177 1 52.1961 57.0044 0 52.1961 57.0044 0 707.961 -320.87 -41.7387 69.4584 -0.541695 0.840575 1 0.5 0 1
178 1 9.34148 74.8544 0 9.34148 74.8544 0 -853.747 -241.545 -83.9501 54.3358 -0.839501 0.543358 1 0.5 0 1
179 1 40.9878 76.0217 0 40.9878 -3.24433 0 -503.54 -1388.18 -44.3159 -89.6443 -0.443159 -0.896443 1 0.5 0 1
180 1 69.6632 32.1921 0 69.6632 32.1921 0 745.261 245.78 2.91671 -18.3237 0.182868 0.983138 1 0.5 0 1
181 1 62.4378 10.0044 0 62.4378 10.0044 0 168.982 -102.422 43.3122 -75.448 -0.462973 0.886372 1 0.5 0 1
182 1 36.9711 0.705187 0 36.9711 79.9712 0 -139.813 63.8748 65.3246 38.3721 0.727737 0.685856 1 0.5 0 1
183 1 29.3581 33.8796 0 29.3581 33.8796 0 596.43 178.892 -76.9573 -20.5299 -0.526824 -0.849975 1 0.5 0 1
184 1 73.6767 31.9622 0 73.6767 31.9622 0 218.298 948.084 38.5062 54.2293 -0.950747 0.309967 1 0.5 0 1
185 1 53.6141 47.2069 0 53.6141 47.2069 0 48.3548 216.571 -53.5073 58.8144 -0.367758 0.929922 1 0.5 0 1
186 1 32.7499 13.8297 0 32.7499 13.8297 0 33.6408 -252.082 -151.491 -7.53007 0.245759 0.969331 1 0.5 0 1
187 1 17.7507 65.4374 0 17.7507 65.4374 0 359.202 607.517 66.8068 -1.55674 0.183103 0.983094 1 0.5 0 1
188 1 66.445 71.148 0 66.445 71.148 0 -259.071 -670.454 79.957 116.579 0.798155 -0.602452 1 0.5 0 1
189 1 5.54165 42.2448 0 5.54165 42.2448 0 -388.747 -618.838 -16.0731 26.9314 -0.552352 -0.833611 1 0.5 0 1
190 1 36.2803 61.3507 0 36.2803 61.3507 0 -638.648 -146.683 -61.5876 -47.0266 -0.965484 -0.260463 1 0.5 0 1
191 1 73.0804 2.9273 0 73.0804 2.9273 0 670.88 103.875 -85.8122 -107.058 -0.172966 -0.984928 1 0.5 0 1
192 1 50.335 16.4764 0 50.335 16.4764 0 60.6186 -325.506 65.775 -5.92991 0.885718 0.464224 1 0.5 0 1
193 1 42.9196 11.9284 0 42.9196 11.9284 0 206.979 285.463 -67.9024 6.64474 -0.986165 0.165766 1 0.5 0 1
194 1 63.3894 38.0724 0 63.3894 38.0724 0 918.267 110.462 23.2674 -116.573 -0.141945 0.989875 1 0.5 0 1
195 1 27.1148 6.42778 0 27.1148 6.42778 0 -34.404 219.377 94.7859 69.5868 0.379746 0.925091 1 0.5 0 1
196 1 69.7221 41.5873 0 69.7221 41.5873 0 346.533 102.73 36.1148 12.849 -0.589028 -0.808112 1 0.5 0 1
197 1 12.1124 35.8255 0 12.1124 35.8255 0 -392.586 -1001.82 -31.9769 50.4369 -0.520916 0.853608 1 0.5 0 1
198 1 70.2549 39.0665 0 70.2549 39.0665 0 -1032.82 -76.1732 -8.6257 6.72516 0.271804 -0.962353 1 0.5 0 1
199 1 28.0833 3.84268 0 28.0833 3.84268 0 -1077.03 173.074 42.7452 -51.4766 0.545808 0.83791 1 0.5 0 1
200 1 2.98584 38.7082 0 2.98584 38.7082 0 -250.079 164.077 57.6926 -23.3286 -0.0222165 0.999753 1 0.5 0 1
201 1 32.3415 1.83914 0 32.3415 1.83914 0 -275.977 665.338 8.63389 -99.6266 0.0863389 -0.996266 1 0.5 0 1
202 1 1.3009 28.7853 0 1.3009 28.7853 0 604.539 47.374 -64.8743 -89.3296 -0.302817 -0.953049 1 0.5 0 1
203 1 43.6523 44.9233 0 43.6523 44.9233 0 -293.073 -310.527 83.3476 -52.9837 -0.688813 0.724939 1 0.5 0 1
204 1 7.30478 6.43914 0 7.30478 6.43914 0 -222.432 276.525 -9.96896 111.561 -0.479131 0.877744 1 0.5 0 1
205 1 42.2714 71.7208 0 42.2714 71.7208 0 -230.086 655.672 36.3388 -52.3379 0.05252 -0.99862 1 0.5 0 1
206 1 14.848 15.5439 0 14.848 15.5439 0 -422.979 -4.5473 23.0597 -36.3777 -0.686921 -0.726732 1 0.5 0 1
207 1 34.1417 41.9187 0 34.1417 41.9187 0 -57.383 117.799 -115.301 -45.5219 -0.431318 0.9022 1 0.5 0 1
208 1 58.5418 58.9625 0 58.5418 58.9625 0 43.358 -451.362 36.7667 27.488 -0.367198 0.930143 1 0.5 0 1
209 1 61.7418 12.5809 0 61.7418 12.5809 0 -109.158 411.281 56.1008 -16.547 0.771858 0.635795 1 0.5 0 1
210 1 49.0406 76.827 0 49.0406 76.827 0 -307.976 159.123 -10.6577 5.42439 -0.146693 0.989182 1 0.5 0 1
211 1 67.9999 32.1516 0 67.9999 32.1516 0 -341.782 -362.338 78.9006 53.9126 -0.618312 0.785933 1 0.5 0 1
212 1 71.1976 6.31177 0 71.1976 6.31177 0 572.539 389.317 -10.2554 -77.8727 -0.23501 -0.971993 1 0.5 0 1
213 1 78.8706 61.9413 0 -0.395431 61.9413 0 462.308 -159.762 65.9329 -53.186 0.876503 0.481396 1 0.5 0 1
214 1 46.1519 55.7403 0 46.1519 55.7403 0 298.654 530.123 -69.5823 47.5762 -0.144763 0.989466 1 0.5 0 1
215 1 0.914327 8.11657 0 0.914327 8.11657 0 731.227 -849.156 -47.803 -122.396 -0.546429 -0.837505 1 0.5 0 1
216 1 36.4105 65.9107 0 36.4105 65.9107 0 333.656 -782.978 -137.672 99.0793 -0.965527 0.260303 1 0.5 0 1
217 1 54.4455 32.881 0 54.4455 32.881 0 -13.7374 360.924 -1.30074 116.964 -0.994797 -0.10188 1 0.5 0 1
218 1 8.6888 23.9769 0 8.6888 23.9769 0 -542.219 -571.408 1.84565 -26.3503 -0.135457 0.990783 1 0.5 0 1
219 1 36.6706 58.0401 0 36.6706 58.0401 0 42.158 -528.645 8.88589 34.1423 0.902358 -0.430988 1 0.5 0 1
220 1 37.434 19.2251 0 37.434 19.2251 0 -406.917 -673.593 59.0557 4.43586 0.983089 0.18313 1 0.5 0 1
221 1 55.2743 21.3793 0 55.2743 21.3793 0 397.454 -697.458 21.9077 75.8059 -0.142976 0.989726 1 0.5 0 1
222 1 53.4774 13.5458 0 53.4774 13.5458 0 -230.596 465.917 -22.4607 -2.17187 -0.995648 -0.0931912 1 0.5 0 1
223 1 3.95746 17.2417 0 3.95746 17.2417 0 152.223 631.67 -85.7146 66.6748 0.272993 0.962016 1 0.5 0 1
224 1 6.42379 56.998 0 6.42379 56.998 0 -131.573 303.698 -41.3393 172.119 -0.753709 0.657208 1 0.5 0 1
225 1 1.46897 22.2527 0 80.735 22.2527 0 185.431 -145.09 -68.2264 87.9769 -0.439283 -0.898349 1 0.5 0 1
226 1 45.9241 45.4962 0 45.9241 45.4962 0 -96.6819 -215.68 42.6443 -79.8974 0.664801 -0.747021 1 0.5 0 1
227 1 45.1507 7.47926 0 45.1507 7.47926 0 124.53 597.606 129.963 -5.57652 0.509613 0.860404 1 0.5 0 1
228 1 22.5899 56.3503 0 22.5899 56.3503 0 85.287 23.0779 76.4613 -10.8774 0.911222 0.411915 1 0.5 0 1
229 1 44.109 26.2587 0 44.109 26.2587 0 275.555 -402.548 68.7146 -2.37739 0.652805 0.757526 1 0.5 0 1
230 1 0.159802 73.3417 0 79.4258 73.3417 0 77.0669 -28.3216 66.0715 55.0473 -0.0491873 0.99879 1 0.5 0 1
231 1 12.6887 52.1541 0 12.6887 52.1541 0 134.663 760.419 41.6612 52.1281 0.935415 -0.353552 1 0.5 0 1
232 1 41.8886 12.2617 0 41.8886 12.2617 0 297.925 570.213 -45.2292 -98.1916 -0.16289 -0.986644 1 0.5 0 1
233 1 70.9041 56.3552 0 70.9041 56.3552 0 -332.411 337.82 16.0431 -43.4322 -0.627909 -0.778287 1 0.5 0 1
234 1 57.5413 14.1436 0 57.5413 14.1436 0 -1246.73 34.8618 19.2853 -55.494 0.347784 -0.937575 1 0.5 0 1
235 1 16.3554 57.489 0 16.3554 57.489 0 -719.833 868.444 -31.7206 66.9468 0.0540595 0.998538 1 0.5 0 1
236 1 53.1809 65.5951 0 53.1809 65.5951 0 845.276 -54.7817 68.113 -22.6928 0.997886 0.064982 1 0.5 0 1
237 1 21.6286 27.6116 0 21.6286 27.6116 0 67.9722 313.033 -71.0405 61.4979 0.709423 0.704783 1 0.5 0 1
238 1 52.2332 73.9684 0 52.2332 73.9684 0 -399.156 694.728 -10.374 -62.4399 0.557993 -0.829845 1 0.5 0 1
239 1 69.1352 13.3028 0 69.1352 13.3028 0 -420.963 264.214 56.3942 -76.4145 0.930637 0.365943 1 0.5 0 1
240 1 79.1535 24.1144 0 -0.112531 24.1144 0 711.223 -25.5463 7.83341 -55.2379 0.346262 0.938138 1 0.5 0 1
241 1 72.4605 76.5376 0 72.4605 76.5376 0 267.821 -488.13 -8.82577 -101.914 -0.999097 -0.0424859 1 0.5 0 1
242 1 56.4281 10.6356 0 56.4281 10.6356 0 -239.1 970.531 2.83061 -99.9599 0.0283061 -0.999599 1 0.5 0 1
243 1 27.2785 60.8866 0 27.2785 60.8866 0 615.521 -606.027 -58.4486 91.6987 -0.940953 0.338538 1 0.5 0 1
244 1 63.6972 48.3274 0 63.6972 48.3274 0 -361.779 -29.2332 -87.4725 -16.3682 -0.516755 -0.856133 1 0.5 0 1
245 1 42.5809 21.2104 0 42.5809 21.2104 0 -96.194 353.769 -76.3873 -3.20919 0.637973 0.770059 1 0.5 0 1
246 1 19.6385 39.854 0 19.6385 39.854 0 -276.674 -749.843 -6.68829 -88.4954 0.259879 -0.965641 1 0.5 0 1
247 1 60.0036 5.0907 0 60.0036 5.0907 0 -401.339 -544.538 -32.0994 49.7416 -0.148339 -0.988937 1 0.5 0 1
248 1 20.9572 70.9353 0 20.9572 70.9353 0 64.7283 572.503 -59.5847 52.7052 -0.805876 0.592085 1 0.5 0 1
249 1 24.4115 25.0395 0 24.4115 25.0395 0 -301.696 -462.55 28.3637 -48.8603 0.922996 -0.38481 1 0.5 0 1
250 1 77.4952 28.1845 0 77.4952 28.1845 0 269.361 -45.2279 142.312 -52.3652 0.999732 -0.0231595 1 0.5 0 1
251 1 19.7898 75.7723 0 19.7898 75.7723 0 1107.72 519.785 51.2696 73.3923 0.447561 0.894253 1 0.5 0 1
252 1 15.9486 52.105 0 15.9486 52.105 0 674.3 -494.025 63.8672 54.4007 0.966186 0.257845 1 0.5 0 1
253 1 36.3753 30.2584 0 36.3753 30.2584 0 -549.846 347.561 24.6289 -30.0087 -0.80457 0.593858 1 0.5 0 1
254 1 53.6936 39.5884 0 53.6936 39.5884 0 -157.869 -451.16 -16.4028 73.5199 -0.725623 0.688093 1 0.5 0 1
255 1 78.7343 58.9063 0 78.7343 58.9063 0 337.046 115.509 -102.996 46.9046 -0.270041 0.962849 1 0.5 0 1
256 1 5.1717 23.5433 0 5.1717 23.5433 0 3.07615 -59.7267 77.7379 81.4191 -0.586625 0.809859 1 0.5 0 1
257 1 32.1538 61.5682 0 32.1538 61.5682 0 55.3533 -617.786 94.2387 33.4526 0.942387 0.334526 1 0.5 0 1
258 1 26.62 23.2013 0 26.62 23.2013 0 1305.05 -436.803 -195.004 66.0261 -0.967046 0.254601 1 0.5 0 1
259 1 1.80601 12.6113 0 81.072 12.6113 0 386.815 138.964 33.903 89.811 0.873552 -0.48673 1 0.5 0 1
260 1 72.4813 56.4364 0 72.4813 56.4364 0 198.088 153.353 37.7449 -52.9607 0.795365 0.606131 1 0.5 0 1
261 1 24.3841 44.1491 0 24.3841 44.1491 0 -248.142 331.42 -1.51229 22.2416 -0.99982 0.0189881 1 0.5 0 1
262 1 74.7508 13.2286 0 74.7508 13.2286 0 -311.257 -386.439 67.2318 -72.5424 0.974081 -0.2262 1 0.5 0 1
263 1 5.64695 13.9091 0 5.64695 13.9091 0 -81.5192 401.325 42.0114 -57.2546 0.101927 -0.994792 1 0.5 0 1
264 1 78.6795 19.7771 0 78.6795 19.7771 0 -379.05 -121.61 194.53 -32.7309 0.982711 -0.185148 1 0.5 0 1
265 1 34.9931 64.9067 0 34.9931 64.9067 0 91.9653 353.304 -130.377 -126.66 -0.980006 -0.198968 1 0.5 0 1
266 1 25.351 78.9755 0 25.351 78.9755 0 -180.533 -7.17349 -19.9564 10.1593 -0.0148528 -0.99989 1 0.5 0 1
267 1 17.1027 19.8031 0 17.1027 19.8031 0 489.072 139.227 15.1402 -20.33 -0.583698 -0.811971 1 0.5 0 1
268 1 38.7487 68.7991 0 38.7487 68.7991 0 118.697 -573.033 6.17207 53.2098 0.629204 0.77724 1 0.5 0 1
269 1 2.33772 24.031 0 81.6037 24.031 0 -62.5891 -39.1153 -2.85385 202.326 0.537052 0.843549 1 0.5 0 1
270 1 72.0661 14.4983 0 72.0661 14.4983 0 121.565 -526.761 89.7509 143.294 0.991306 -0.13158 1 0.5 0 1
271 1 18.6583 61.9851 0 18.6583 61.9851 0 -471.567 105.65 111.324 -6.56464 0.510057 -0.860141 1 0.5 0 1
272 1 35.0873 23.6928 0 35.0873 23.6928 0 -472.243 -178.755 70.0627 -71.3528 0.700627 -0.713528 1 0.5 0 1
273 1 36.038 24.3969 0 36.038 24.3969 0 -1069.15 683.035 -23.0717 97.3021 -0.230717 0.973021 1 0.5 0 1
274 1 43.6526 23.2271 0 43.6526 23.2271 0 486.64 766.789 -62.2817 -35.3299 -0.973028 -0.230688 1 0.5 0 1
275 1 20.2994 6.7028 0 20.2994 6.7028 0 -314.527 124.891 63.2283 -31.5121 0.533401 -0.845863 1 0.5 0 1
276 1 55.4677 25.8855 0 55.4677 25.8855 0 -66.8117 354.978 98.0498 32.1321 0.0550655 0.998483 1 0.5 0 1
277 1 11.5513 46.1418 0 11.5513 46.1418 0 339.182 247.726 -78.3385 10.1536 -0.99379 0.11127 1 0.5 0 1
278 1 10.0524 35.2343 0 10.0524 35.2343 0 -55.7015 -277.994 97.6555 -74.8145 -0.704158 0.710043 1 0.5 0 1
279 1 62.7334 12.0396 0 62.7334 12.0396 0 481.744 1084.62 -66.6132 -24.6624 0.854389 0.519635 1 0.5 0 1
280 1 57.5371 16.7762 0 57.5371 16.7762 0 901.141 60.1306 -100.471 -0.617175 0.999828 -0.0185314 1 0.5 0 1
281 1 40.4723 35.1166 0 40.4723 35.1166 0 -163.443 677.849 98.6049 -59.133 0.742026 0.670372 1 0.5 0 1
282 1 21.4815 36.3587 0 21.4815 36.3587 0 -911.454 354.788 22.7023 -72.4048 0.971093 -0.2387 1 0.5 0 1
283 1 18.5821 58.9902 0 18.5821 58.9902 0 -523.74 -333.798 107.376 -24.0488 -0.513759 0.857935 1 0.5 0 1
284 1 27.7101 66.8111 0 27.7101 66.8111 0 -255.81 232.966 -31.8648 90.2948 -0.250056 0.968231 1 0.5 0 1
285 1 3.51383 43.1316 0 82.7798 43.1316 0 434.166 513.145 -94.7447 -52.6831 0.183164 -0.983082 1 0.5 0 1
286 1 23.3851 36.2904 0 23.3851 36.2904 0 22.827 -646.871 84.0349 84.2119 -0.0521533 0.998639 1 0.5 0 1