ITEM: TIMESTEP
70000
ITEM: NUMBER OF ATOMS
4000
ITEM: BOX BOUNDS pp pp pp
0.0000000000000000e+00 7.9266000000000005e+01
0.0000000000000000e+00 7.9266000000000005e+01
-5.0000000000000000e-01 5.0000000000000000e-01
ITEM: ATOMS id type x y z xu yu zu vx vy fx fy mux muy mu radius omegaz mass
1 1 49.4289 61.4741 0 49.4289 61.4741 0 -122.757 -434.802 -22.9737 14.039 0.536327 0.84401 1 0.5 0 1
2 1 29.3755 73.5083 0 29.3755 -5.75774 0 -94.9241 394.128 -42.4241 -78.0055 -0.539729 -0.841839 1 0.5 0 1
3 1 42.486 6.86735 0 42.486 6.86735 0 501.236 393.062 83.0785 -55.6593 0.830785 -0.556593 1 0.5 0 1
4 1 56.2637 20.7187 0 56.2637 99.9847 0 780.798 36.1265 -23.3703 37.7322 0.819354 0.573288 1 0.5 0 1
5 1 50.6037 37.1651 0 50.6037 37.1651 0 68.4854 17.6514 -6.87608 14.7628 -0.4171 -0.908861 1 0.5 0 1
6 1 36.864 21.2541 0 36.864 21.2541 0 -113.86 -819.938 -30.3819 -58.2124 -0.993632 -0.112674 1 0.5 0 1
7 1 66.1895 43.2298 0 66.1895 43.2298 0 -491.831 -119.459 148.84 -4.37393 0.497591 0.867412 1 0.5 0 1
8 1 25.7299 2.47828 0 25.7299 2.47828 0 966.822 -518.88 -119.821 110.057 -0.365957 -0.930632 1 0.5 0 1
9 1 29.5688 22.6197 0 29.5688 22.6197 0 154.122 263.859 87.153 -36.6269 0.933041 -0.35977 1 0.5 0 1
10 1 68.5887 65.1277 0 68.5887 65.1277 0 -477.01 -48.138 -91.2532 31.4849 0.106609 -0.994301 1 0.5 0 1
11 1 65.9755 53.6799 0 -13.2905 53.6799 0 -418.794 -735.879 -13.5566 -52.7392 -0.94994 -0.312433 1 0.5 0 1
12 1 56.9112 66.4231 0 56.9112 66.4231 0 704.351 73.3115 84.614 6.31653 0.999993 0.00364689 1 0.5 0 1
13 1 34.3408 59.6362 0 34.3408 59.6362 0 314.11 -361.619 -125.632 88.57 0.649112 -0.760693 1 0.5 0 1
14 1 64.928 53.7314 0 -14.338 53.7314 0 -242.523 -168.5 -113.869 -209.191 -0.683635 -0.729825 1 0.5 0 1
15 1 44.721 59.6548 0 44.721 59.6548 0 -66.0358 95.1559 76.4283 3.45573 -0.96282 -0.270144 1 0.5 0 1
16 1 62.8332 11.6798 0 -16.4328 11.6798 0 54.9916 48.4987 -38.4149 -9.3644 -0.945513 0.325584 1 0.5 0 1
17 1 40.4787 44.6517 0 40.4787 44.6517 0 -505.78 268.027 3.65344 30.5431 -0.752891 0.658145 1 0.5 0 1
18 1 39.0657 23.1878 0 39.0657 23.1878 0 -245.112 607.026 103.493 -104.375 -0.310918 -0.950437 1 0.5 0 1
19 1 31.6726 56.6953 0 31.6726 56.6953 0 -546.408 -388.874 -55.0234 -29.819 -0.41196 -0.911202 1 0.5 0 1
20 1 20.4858 60.1241 0 20.4858 60.1241 0 15.9894 -217.529 -28.0786 5.21553 0.795465 0.606 1 0.5 0 1
21 1 53.6347 62.0427 0 53.6347 -17.2233 0 -418.161 -96.1765 3.45498 59.7148 -0.971344 -0.237676 1 0.5 0 1
22 1 45.6586 30.666 0 45.6586 30.666 0 -646.693 1278.31 13.7269 51.3058 0.273854 -0.961771 1 0.5 0 1
23 1 25.6034 6.17741 0 25.6034 6.17741 0 195.705 -282.075 77.8493 -29.2433 -0.047244 -0.998883 1 0.5 0 1
24 1 64.5658 69.7053 0 64.5658 -9.56073 0 -166.121 -56.6841 11.777 -115.626 -0.116344 -0.993209 1 0.5 0 1
25 1 75.2923 77.4733 0 -3.97371 -1.79272 0 629.149 280.652 -87.818 -37.0212 -0.953097 -0.302665 1 0.5 0 1
26 1 25.8155 67.9654 0 25.8155 -11.3006 0 289.91 264.251 41.1956 -79.4174 0.64752 -0.762049 1 0.5 0 1
27 1 46.3684 29.8835 0 46.3684 29.8835 0 -549.747 236.192 2.61401 -21.1751 -0.544125 0.839004 1 0.5 0 1
28 1 23.0527 49.6074 0 23.0527 49.6074 0 442.485 -669.522 -66.4516 74.7274 -0.664516 0.747274 1 0.5 0 1
29 1 77.1016 34.201 0 -2.16438 34.201 0 319.763 -924.855 -22.2851 -21.1655 -0.357084 0.934072 1 0.5 0 1
30 1 42.1799 26.6446 0 42.1799 105.911 0 116.38 556.106 86.2078 50.6776 0.862078 0.506776 1 0.5 0 1
31 1 26.614 45.184 0 26.614 45.184 0 -257.115 -727.828 16.2505 -22.4885 -0.030939 -0.999521 1 0.5 0 1
32 1 31.4582 46.004 0 31.4582 46.004 0 247.307 302.072 -113.034 19.8494 -0.585099 0.810962 1 0.5 0 1
33 1 34.4496 57.873 0 34.4496 -21.393 0 379.724 103.591 -62.5882 -70.9393 0.0845986 -0.996415 1 0.5 0 1
34 1 77.3058 33.1677 0 77.3058 33.1677 0 652.184 270.944 15.4477 -18.7522 0.999719 -0.0237155 1 0.5 0 1
35 1 12.881 77.0385 0 12.881 77.0385 0 74.2465 -1216.06 56.2398 -89.5513 -0.986064 -0.166364 1 0.5 0 1
36 1 49.9455 15.3044 0 49.9455 15.3044 0 164.2 -429.157 -10.9385 -144.794 0.344237 -0.938883 1 0.5 0 1
37 1 71.2238 37.5492 0 71.2238 37.5492 0 -265.162 523.344 -21.316 214.359 0.507935 0.861395 1 0.5 0 1
38 1 24.1999 38.9235 0 103.466 38.9235 0 252.329 131.137 5.4536 111.467 -0.0970069 0.995284 1 0.5 0 1
39 1 16.5025 15.5938 0 16.5025 15.5938 0 326.857 90.0019 2.04126 -74.9107 0.151764 -0.988417 1 0.5 0 1
40 1 70.9801 68.1519 0 -8.28586 -11.1141 0 51.8082 -828.803 -117.048 29.908 -0.751436 -0.659806 1 0.5 0 1
41 1 61.6881 57.0364 0 61.6881 57.0364 0 452.077 180.463 36.8607 -52.9178 0.35896 -0.933353 1 0.5 0 1
42 1 6.5918 72.8403 0 6.5918 72.8403 0 -398.615 31.7158 -30.9091 -54.8691 -0.48522 -0.874392 1 0.5 0 1
43 1 4.60564 63.726 0 4.60564 63.726 0 -616.504 419.839 -99.3169 11.6683 -0.993169 0.116683 1 0.5 0 1
44 1 71.1252 8.12278 0 71.1252 87.3888 0 540.548 163.914 -87.3859 -60.8384 -0.539166 0.842199 1 0.5 0 1
45 1 15.8862 52.2836 0 15.8862 52.2836 0 -140.779 393.731 -1.49052 -99.9889 -0.0149052 -0.999889 1 0.5 0 1
46 1 16.028 19.0485 0 16.028 19.0485 0 -516.298 -62.562 -49.7165 52.1923 -0.999417 0.0341413 1 0.5 0 1
47 1 5.42554 0.0695383 0 5.42554 0.0695383 0 671.928 -327.574 27.5107 -96.1414 0.275107 -0.961414 1 0.5 0 1
48 1 42.7911 53.0669 0 42.7911 53.0669 0 250.633 -412.02 -94.0608 -33.9495 -0.940608 -0.339495 1 0.5 0 1
49 1 73.198 10.7555 0 73.198 90.0215 0 924.794 -756.779 100.087 -64.6565 0.990587 0.136885 1 0.5 0 1
50 1 68.1439 29.2903 0 68.1439 29.2903 0 516.141 180.984 -80.8824 -77.9687 0.552316 0.833635 1 0.5 0 1
51 1 9.21479 9.5428 0 9.21479 9.5428 0 89.5344 -453.025 48.6229 -24.5744 -0.811566 -0.584261 1 0.5 0 1
52 1 2.64186 12.4984 0 81.9079 12.4984 0 -183.495 484.727 122.924 59.1255 0.86504 -0.501703 1 0.5 0 1
53 1 43.7897 74.2858 0 43.7897 74.2858 0 156.253 -164.814 -18.393 78.5876 -0.513025 0.858374 1 0.5 0 1
54 1 41.0302 33.2158 0 41.0302 33.2158 0 -106.671 -99.8016 80.7941 -17.5566 0.999991 0.00431811 1 0.5 0 1
55 1 10.0532 5.92014 0 89.3192 85.1861 0 -645.71 410.639 31.4079 16.0026 0.990411 -0.138149 1 0.5 0 1
56 1 35.4296 47.5083 0 35.4296 47.5083 0 374.445 92.2628 -18.9304 -111.182 -0.648306 -0.76138 1 0.5 0 1
57 1 19.8251 72.3251 0 19.8251 72.3251 0 -176.058 -378.766 75.8063 -8.20807 -0.989049 -0.14759 1 0.5 0 1
58 1 15.1257 17.1005 0 15.1257 17.1005 0 -283.073 50.6027 184.804 -133.532 -0.854455 -0.519525 1 0.5 0 1
59 1 61.9519 11.0516 0 61.9519 11.0516 0 90.45 292.906 66.7355 19.5153 0.375982 0.926627 1 0.5 0 1
60 1 54.6003 37.2544 0 54.6003 37.2544 0 -1180.92 385.664 71.2026 128.988 0.420658 -0.907219 1 0.5 0 1
61 1 59.6701 37.3671 0 59.6701 37.3671 0 754.999 -0.236634 4.06613 89.5385 0.970583 -0.240765 1 0.5 0 1
62 1 44.2763 22.6119 0 44.2763 22.6119 0 309.954 -146.491 -23.3633 -97.2325 -0.233633 -0.972325 1 0.5 0 1
63 1 63.9263 64.7867 0 -15.3397 64.7867 0 -265.147 765.281 -141.061 38.1665 -0.857595 -0.514326 1 0.5 0 1
64 1 60.4826 43.1409 0 60.4826 43.1409 0 -193.095 257.539 -100.803 -11.3101 0.53028 0.847823 1 0.5 0 1
65 1 71.3044 62.1067 0 71.3044 62.1067 0 14.4917 335.448 -128.235 18.1152 -0.00364173 0.999993 1 0.5 0 1
66 1 62.5918 65.0933 0 62.5918 65.0933 0 550.724 146.508 -17.8748 -68.2897 0.995329 -0.0965444 1 0.5 0 1
67 1 49.4494 23.7183 0 49.4494 23.7183 0 77.3089 -44.0781 66.3362 21.7905 0.926622 0.375995 1 0.5 0 1
68 1 40.8298 41.336 0 40.8298 41.336 0 130.68 638.808 79.4867 60.6784 0.794867 0.606784 1 0.5 0 1
69 1 35.9098 75.5688 0 35.9098 75.5688 0 358.888 -125.76 -196.311 -48.6948 -0.98751 -0.157559 1 0.5 0 1
70 1 19.4525 77.6696 0 19.4525 77.6696 0 -291.888 -322.998 92.5895 2.9925 0.215304 0.976547 1 0.5 0 1
71 1 38.421 49.8611 0 38.421 49.8611 0 -20.9317 21.5663 -2.69083 73.588 -0.924211 -0.381883 1 0.5 0 1
72 1 10.4832 70.5936 0 10.4832 70.5936 0 -599.282 229.745 100.499 76.0915 -0.955256 0.29578 1 0.5 0 1
73 1 77.7173 29.3212 0 77.7173 29.3212 0 323.881 69.4205 -29.1315 -88.9122 0.336422 -0.941711 1 0.5 0 1
74 1 66.0055 61.5509 0 66.0055 61.5509 0 -524.957 381.725 25.5137 74.0161 0.992136 -0.125161 1 0.5 0 1
75 1 3.95097 36.7222 0 3.95097 36.7222 0 -572.376 -496.656 8.80857 -84.0526 -0.965676 0.25975 1 0.5 0 1
76 1 10.775 29.421 0 10.775 29.421 0 -743.675 -122.113 -3.33804 32.9163 -0.948438 -0.316964 1 0.5 0 1
77 1 11.7804 10.2216 0 11.7804 10.2216 0 52.7864 822.301 -172.639 -40.9685 -0.507917 0.861406 1 0.5 0 1
78 1 32.9166 44.9455 0 32.9166 44.9455 0 99.9199 -524.278 -77.0256 -28.549 -0.94598 -0.324225 1 0.5 0 1
79 1 44.2677 4.12479 0 44.2677 83.3908 0 854.435 -842.055 -63.0829 -75.026 -0.935911 -0.352238 1 0.5 0 1
80 1 42.9947 48.298 0 42.9947 -30.968 0 -242.53 506.078 20.5684 -25.3089 -0.401181 -0.915999 1 0.5 0 1
81 1 14.9385 34.2165 0 94.2045 34.2165 0 -213.604 671.303 91.1756 22.3497 0.992499 0.122256 1 0.5 0 1
82 1 19.7528 30.3022 0 19.7528 30.3022 0 -40.7832 868.76 69.8818 -52.2759 -0.929848 0.367943 1 0.5 0 1
83 1 37.7723 44.0891 0 37.7723 44.0891 0 -426.715 -786.32 -29.411 -24.6468 0.618997 0.785394 1 0.5 0 1
84 1 77.1245 41.8286 0 -2.14151 41.8286 0 -459.895 447.451 -60.3081 95.5607 -0.870444 0.492267 1 0.5 0 1
85 1 25.9008 73.6912 0 25.9008 -5.57477 0 77.4566 -56.6075 -37.8247 -43.2305 -0.844008 -0.53633 1 0.5 0 1
86 1 29.196 3.21563 0 29.196 3.21563 0 -40.0104 -851.419 81.5177 -119.97 -0.924778 -0.380507 1 0.5 0 1
87 1 51.7762 33.3998 0 51.7762 33.3998 0 -65.0064 171.424 -4.81895 43.0895 0.214863 0.976644 1 0.5 0 1
88 1 59.7902 23.6202 0 59.7902 23.6202 0 44.0772 -53.6085 -47.4502 34.704 -0.140946 0.990017 1 0.5 0 1
89 1 21.6118 62.6384 0 21.6118 62.6384 0 768.723 -440.638 -81.6465 124.15 0.569835 0.821759 1 0.5 0 1
90 1 28.4604 44.0133 0 28.4604 44.0133 0 135.711 -301.566 60.1788 -92.0593 -0.118315 -0.992976 1 0.5 0 1
91 1 5.95479 63.9933 0 5.95479 -15.2727 0 -403.309 -21.2897 -57.5917 -81.7508 -0.575917 -0.817508 1 0.5 0 1
92 1 24.8156 52.2101 0 24.8156 52.2101 0 -102.386 419.08 -121.483 41.4727 -0.9994 0.0346226 1 0.5 0 1
93 1 2.19502 50.7607 0 2.19502 50.7607 0 54.7686 336.889 68.3035 -22.4302 -0.673231 -0.739433 1 0.5 0 1
94 1 2.06679 31.6695 0 81.3328 31.6695 0 114.711 792.238 -32.976 15.1017 0.201278 0.979534 1 0.5 0 1
95 1 65.6367 42.3847 0 65.6367 42.3847 0 -244.849 -40.1529 23.3459 62.1699 0.84136 0.540475 1 0.5 0 1
96 1 56.0132 35.9097 0 56.0132 35.9097 0 -861.701 355.183 -70.8178 58.0571 0.891114 -0.45378 1 0.5 0 1
97 1 65.341 28.5476 0 65.341 28.5476 0 212.618 862.925 43.2186 -340.448 -0.438227 -0.898864 1 0.5 0 1
98 1 70.5791 69.1608 0 -8.68694 69.1608 0 -508.328 843.729 -4.47249 3.74758 -0.874104 0.485739 1 0.5 0 1
99 1 54.4816 21.4478 0 54.4816 21.4478 0 -481.647 -233.133 -133.6 -75.6648 -0.965135 -0.261753 1 0.5 0 1
100 1 73.7572 39.3984 0 73.7572 39.3984 0 169.348 292.159 95.2561 -33.4339 0.688362 -0.725367 1 0.5 0 1
101 1 42.4995 41.5337 0 42.4995 41.5337 0 702.554 168.254 -30.4085 -78.1854 -0.121759 -0.99256 1 0.5 0 1
102 1 1.16886 37.2515 0 1.16886 37.2515 0 -54.5416 447.305 6.19388 70.929 -0.839883 0.542768 1 0.5 0 1
103 1 22.2566 54.7891 0 22.2566 54.7891 0 -801.379 12.6234 -66.1976 -43.8616 -0.664482 0.747304 1 0.5 0 1
104 1 48.4205 19.9067 0 48.4205 99.1727 0 425.338 -265.522 87.7209 48.0109 0.877209 0.480109 1 0.5 0 1
105 1 65.2368 2.96635 0 -14.0292 2.96635 0 -208.895 -728.724 -83.1393 -51.0029 -0.621531 -0.78339 1 0.5 0 1
106 1 39.1105 46.0393 0 39.1105 46.0393 0 -112.497 -481.084 85.8315 -22.5977 -0.990835 -0.13508 1 0.5 0 1
107 1 64.5123 31.0117 0 64.5123 31.0117 0 96.2814 -71.603 15.8639 20.5212 -0.140475 0.990084 1 0.5 0 1
108 1 4.36577 11.5505 0 4.36577 90.8165 0 -541.44 13.7857 11.1431 -19.7049 -0.653022 0.757339 1 0.5 0 1
109 1 2.70141 55.2053 0 2.70141 55.2053 0 -194.747 776.58 30.8186 8.23332 -0.66545 0.746442 1 0.5 0 1
110 1 6.10955 38.5684 0 6.10955 38.5684 0 -17.4834 -416.864 37.8014 0.733281 -0.11699 0.993133 1 0.5 0 1
111 1 7.98651 25.6942 0 7.98651 25.6942 0 -557.158 -63.0627 72.274 -60.851 0.964562 -0.263855 1 0.5 0 1
112 1 30.1248 40.7306 0 30.1248 40.7306 0 -203.124 330.309 -30.516 40.5943 -0.509414 -0.860522 1 0.5 0 1
113 1 67.0828 70.7787 0 -12.1832 -8.48728 0 -703.851 794.502 -55.949 51.7529 -0.867727 -0.497042 1 0.5 0 1
114 1 13.0083 29.9442 0 13.0083 29.9442 0 -230.37 240.066 -81.8972 -69.3174 -0.899461 0.437001 1 0.5 0 1
115 1 1.5821 68.8628 0 1.5821 -10.4032 0 28.4511 749.11 65.3505 -10.4206 -0.944926 -0.327283 1 0.5 0 1
116 1 19.4107 13.6649 0 19.4107 13.6649 0 -686.845 -577.893 -74.1645 -91.8592 -0.300937 -0.953644 1 0.5 0 1
117 1 62.9007 53.562 0 62.9007 53.562 0 -465.404 264.223 -42.3651 -75.5613 0.540401 0.841408 1 0.5 0 1
118 1 59.6949 41.5858 0 59.6949 41.5858 0 774.256 584.063 11.1574 -101.377 0.491878 -0.870664 1 0.5 0 1
119 1 11.3002 9.35163 0 11.3002 9.35163 0 -70.1423 53.1335 46.5607 -7.48708 -0.132874 0.991133 1 0.5 0 1
120 1 66.4412 27.7542 0 66.4412 27.7542 0 -274.176 -494.584 51.6235 27.0635 0.995157 -0.0982962 1 0.5 0 1
121 1 59.9802 22.5029 0 -19.2858 22.5029 0 -186.713 -554.532 -65.0279 56.1363 -0.996387 0.0849252 1 0.5 0 1
122 1 38.2294 51.6179 0 38.2294 51.6179 0 -737.92 431.556 -44.8731 7.79652 -0.906319 0.422594 1 0.5 0 1
123 1 23.5047 26.7731 0 23.5047 26.7731 0 -392.859 233.754 -34.5593 38.0629 -0.975896 0.218235 1 0.5 0 1
124 1 55.2548 10.0092 0 55.2548 10.0092 0 327.524 668.943 -57.2844 -94.9658 -0.178049 0.984022 1 0.5 0 1
125 1 43.4426 18.097 0 43.4426 18.097 0 -93.426 105.271 -97.3566 -39.0461 0.851988 -0.523562 1 0.5 0 1
126 1 67.3195 66.0102 0 67.3195 66.0102 0 -173.311 785.816 231.83 7.07761 0.471231 0.88201 1 0.5 0 1
127 1 59.2858 8.55998 0 59.2858 87.826 0 -413.705 40.2375 -12.2148 -53.3654 0.556381 0.830927 1 0.5 0 1
128 1 63.361 51.1764 0 -15.905 51.1764 0 -132.585 570.998 -14.3739 -36.4511 -0.991875 -0.127218 1 0.5 0 1
129 1 53.4289 68.0431 0 53.4289 -11.2229 0 66.6116 240.049 57.6756 -81.6916 0.576756 -0.816916 1 0.5 0 1
130 1 57.6708 61.7811 0 57.6708 -17.4849 0 -148.497 115.942 -26.4993 20.8632 0.586495 -0.809953 1 0.5 0 1
131 1 7.64109 59.0155 0 7.64109 59.0155 0 -155.931 3.65742 -91.831 12.6531 -0.99981 0.0194806 1 0.5 0 1
132 1 17.1973 9.81044 0 17.1973 89.0764 0 -255.667 197.925 -143.67 -204.018 -0.870564 0.492055 1 0.5 0 1
133 1 66.945 12.0507 0 66.945 91.3167 0 -502.77 98.1766 -23.7805 -52.5355 0.462511 0.886613 1 0.5 0 1
134 1 67.791 68.7811 0 67.791 68.7811 0 125.097 -450.102 -86.4266 148.434 -0.999668 -0.0257677 1 0.5 0 1
135 1 74.47 78.2147 0 74.47 78.2147 0 -39.6339 522.93 -75.8781 0.249708 -0.942647 0.33379 1 0.5 0 1
136 1 17.144 0.3327 0 17.144 79.5987 0 183.821 142.736 117.031 6.50709 0.907531 0.419984 1 0.5 0 1
137 1 14.4828 36.7271 0 93.7488 36.7271 0 332.831 104.049 -30.8523 78.0614 0.957428 0.288674 1 0.5 0 1
138 1 52.5436 34.1123 0 52.5436 34.1123 0 -491.733 395.736 -89.0451 18.5039 -0.895867 0.444323 1 0.5 0 1
139 1 43.7433 76.3118 0 43.7433 -2.95419 0 -222.176 614.269 -5.04478 8.2698 -0.411695 -0.911322 1 0.5 0 1
140 1 21.891 4.61855 0 21.891 4.61855 0 109.226 423.656 -28.4429 63.5164 -0.36507 -0.93098 1 0.5 0 1
141 1 32.733 38.951 0 32.733 38.951 0 -134.306 95.2156 -43.864 -68.2084 -0.998898 -0.0469341 1 0.5 0 1
142 1 31.1416 55.8489 0 31.1416 55.8489 0 -231.903 275.443 130.153 -31.6264 -0.452984 0.891519 1 0.5 0 1
143 1 30.4616 74.0038 0 30.4616 74.0038 0 -1024.14 213.258 28.7832 55.7004 0.529071 0.848578 1 0.5 0 1
144 1 54.2184 16.6547 0 54.2184 16.6547 0 171.991 209.74 -48.4838 -86.4786 -0.766677 -0.642034 1 0.5 0 1
145 1 70.5077 63 0 70.5077 63 0 70.8281 -353.823 -67.7893 2.82561 -0.299514 0.954092 1 0.5 0 1
146 1 24.3469 0.628572 0 24.3469 0.628572 0 730.361 -471.382 -21.2214 30.4642 -0.509347 -0.860561 1 0.5 0 1
147 1 0.657931 26.0295 0 79.9239 26.0295 0 4.12445 -292.313 -10.0364 -84.5488 0.361038 -0.932551 1 0.5 0 1
148 1 2.03512 14.4648 0 81.3011 14.4648 0 925.54 -450.632 -17.277 -67.1163 0.782935 -0.622104 1 0.5 0 1
149 1 63.435 13.6747 0 63.435 92.9407 0 468.568 -569.502 -150.174 0.974821 0.989184 0.146681 1 0.5 0 1
150 1 78.3358 23.6544 0 -0.930222 23.6544 0 162.276 -148.7 -20.7876 87.898 -0.683256 0.730179 1 0.5 0 1
151 1 75.38 74.7399 0 75.38 -4.52612 0 245.959 -421.035 37.192 -76.4466 0.593385 -0.804919 1 0.5 0 1
152 1 12.4501 17.3112 0 12.4501 96.5772 0 511.734 467.686 -54.2192 13.1188 0.878869 0.477062 1 0.5 0 1
153 1 62.8832 57.1915 0 62.8832 57.1915 0 251.346 385.544 -8.06602 39.1723 0.957821 -0.287366 1 0.5 0 1
154 1 0.70857 55.9511 0 0.70857 55.9511 0 403.72 470.772 -28.2199 -61.892 -0.501629 -0.865083 1 0.5 0 1
155 1 62.2695 6.24258 0 -16.9965 6.24258 0 67.2794 111.678 -111.795 -112.471 -0.970567 0.240832 1 0.5 0 1
156 1 73.2435 44.5233 0 73.2435 44.5233 0 1163.26 247.675 -197.164 -50.9683 0.375119 0.926977 1 0.5 0 1
157 1 75.7095 8.59147 0 -3.55648 8.59147 0 603.252 527.012 -46.9218 36.8182 -0.999628 0.027279 1 0.5 0 1
158 1 71.1254 32.376 0 -8.14061 32.376 0 -569.868 -511.037 -34.4483 -14.609 -0.880512 -0.474025 1 0.5 0 1
159 1 73.777 52.8075 0 73.777 52.8075 0 300.683 -205.454 -196.174 254.966 0.369992 0.929035 1 0.5 0 1
160 1 21.3834 25.0858 0 21.3834 25.0858 0 -334.975 475.408 -7.79567 -105.583 0.258675 -0.965964 1 0.5 0 1
161 1 0.649937 34.0947 0 0.649937 34.0947 0 160.494 200.236 -13.6145 -62.7094 -0.749797 -0.661668 1 0.5 0 1
162 1 11.1337 53.0354 0 11.1337 53.0354 0 -32.8389 261.73 -36.6428 -52.6039 -0.447401 -0.894334 1 0.5 0 1
163 1 63.1364 41.7655 0 63.1364 41.7655 0 476.24 -66.6535 -3.38264 92.5427 0.999819 0.0190478 1 0.5 0 1
164 1 27.9253 62.0174 0 27.9253 62.0174 0 -217.754 178.385 -7.6709 -73.1916 0.737937 -0.674869 1 0.5 0 1
165 1 41.6661 35.034 0 41.6661 35.034 0 785.632 38.356 45.2495 25.0157 0.339185 -0.94072 1 0.5 0 1
166 1 53.0438 21.4862 0 53.0438 21.4862 0 30.0553 -0.265554 -99.7105 7.60343 -0.997105 0.0760343 1 0.5 0 1
167 1 37.6265 25.2903 0 37.6265 25.2903 0 76.5095 51.7352 100.345 6.19793 0.996129 -0.0879038 1 0.5 0 1
168 1 49.4978 67.0632 0 49.4978 67.0632 0 73.8671 418.881 -63.1561 77.5327 -0.631561 0.775327 1 0.5 0 1
169 1 39.7161 68.4052 0 39.7161 68.4052 0 652.659 467.181 10.4158 99.4561 0.104158 0.994561 1 0.5 0 1
170 1 74.9826 59.4197 0 74.9826 59.4197 0 -31.2654 92.8196 34.484 93.0916 -0.477689 0.878529 1 0.5 0 1
171 1 5.04658 49.7389 0 84.3126 49.7389 0 -400.17 -637.915 126.534 6.95068 -0.04035 -0.999186 1 0.5 0 1
172 1 32.7495 62.6047 0 32.7495 -16.6613 0 -34.2037 370.579 -111.691 -43.555 -0.57645 -0.817133 1 0.5 0 1
173 1 48.2327 35.119 0 48.2327 35.119 0 -475.274 131.303 59.7467 -133.222 -0.403495 -0.914982 1 0.5 0 1
174 1 18.4308 36.9713 0 18.4308 36.9713 0 281.792 152.546 -98.013 19.8355 -0.98013 0.198355 1 0.5 0 1
175 1 14.8879 3.21758 0 14.8879 3.21758 0 510.677 -77.9126 -22.881 -75.2697 0.788628 -0.614871 1 0.5 0 1
176 1 32.1394 57.6203 0 32.1394 57.6203 0 -176.749 -681.709 3.4876 146.124 -0.987119 0.159988 1 0.5 0 1
177 1 35.8432 68.8438 0 35.8432 68.8438 0 171.485 760.157 14.9455 46.3711 -0.804708 0.593671 1 0.5 0 1
178 1 71.2588 12.9851 0 -8.00725 92.2511 0 -764.056 248.914 -45.2522 0.713168 -0.432953 0.901416 1 0.5 0 1
179 1 22.6166 62.615 0 22.6166 -16.651 0 1004.52 38.977 45.9583 -1.12941 -0.661987 -0.749515 1 0.5 0 1
180 1 75.7132 37.5873 0 75.7132 37.5873 0 -516.209 62.6619 -18.7101 -69.2027 0.460919 0.887442 1 0.5 0 1
181 1 59.8626 24.6937 0 59.8626 24.6937 0 616.105 -274.426 32.6785 132.715 0.190879 0.981614 1 0.5 0 1
182 1 45.5464 25.0882 0 45.5464 104.354 0 -448.92 188.543 -89.3019 45.0018 -0.893019 0.450018 1 0.5 0 1
183 1 31.1226 0.156102 0 31.1226 0.156102 0 -143.399 617.085 -0.441362 -19.8755 -0.0528581 -0.998602 1 0.5 0 1
184 1 65.0043 35.674 0 65.0043 35.674 0 257.032 -234.379 -38.8206 -55.2327 -0.956354 0.292211 1 0.5 0 1
185 1 61.0806 46.547 0 61.0806 46.547 0 808.879 629.776 -42.4666 8.10268 0.101523 -0.994833 1 0.5 0 1
186 1 33.3524 43.7184 0 33.3524 43.7184 0 -486.901 -614.483 -36.4533 94.4448 -0.24422 0.96972 1 0.5 0 1
187 1 76.4713 1.30141 0 -2.7947 80.5674 0 -494.412 -173.331 -62.0556 78.4162 -0.620556 0.784162 1 0.5 0 1
188 1 73.955 62.6662 0 73.955 62.6662 0 -357.85 -505.785 -146.749 -3.94603 -0.489849 -0.871807 1 0.5 0 1
189 1 3.1174 16.7925 0 3.1174 16.7925 0 25.5539 -335.028 -21.9043 2.22551 0.39519 -0.9186 1 0.5 0 1
190 1 8.76266 58.8565 0 8.76266 58.8565 0 1243.06 -845.986 -44.991 56.8672 -0.550575 0.834786 1 0.5 0 1
191 1 14.5033 74.9263 0 93.7693 -4.33969 0 -1377.92 613.758 41.2157 -109.222 0.99338 0.114874 1 0.5 0 1
192 1 60.8692 29.7039 0 60.8692 29.7039 0 -573.644 -437.787 83.0194 40.2399 0.755919 0.654665 1 0.5 0 1
193 1 21.01 9.17391 0 21.01 9.17391 0 102.784 529.003 -111.695 22.7322 -0.994093 -0.108531 1 0.5 0 1
194 1 53.1668 61.1361 0 53.1668 61.1361 0 216.181 -340.478 -67.4355 126.213 -0.395937 0.918278 1 0.5 0 1
195 1 27.8722 26.3412 0 27.8722 26.3412 0 1145.43 529.339 16.3811 -89.0962 0.873472 0.486874 1 0.5 0 1
196 1 61.5488 33.3467 0 61.5488 33.3467 0 -328.388 519.486 112.032 -158.404 -0.372536 -0.928018 1 0.5 0 1
197 1 16.7754 58.46 0 16.7754 58.46 0 16.8465 287.881 51.671 115.195 -0.383366 0.923597 1 0.5 0 1
198 1 74.5997 41.0069 0 74.5997 41.0069 0 159.168 180.095 35.9814 -81.7427 0.849617 -0.5274 1 0.5 0 1
199 1 17.8489 28.2975 0 17.8489 28.2975 0 557.371 -521.493 -71.5945 40.6921 -0.995137 0.0984996 1 0.5 0 1
200 1 13.3146 57.6178 0 13.3146 57.6178 0 -383.025 -506.401 85.8139 39.5221 0.892009 0.452018 1 0.5 0 1
201 1 33.3374 57.628 0 33.3374 -21.638 0 -94.5248 -353.931 -32.8106 -3.64684 -0.904842 -0.425748 1 0.5 0 1
202 1 58.7088 18.7026 0 -20.5572 18.7026 0 431.154 -706.454 -61.1404 -33.1139 -0.992347 -0.123483 1 0.5 0 1
203 1 17.46 62.361 0 17.46 62.361 0 782.819 -34.1692 -128.966 28.6206 -0.677564 0.735464 1 0.5 0 1
204 1 11.7239 23.7 0 11.7239 23.7 0 574.961 70.3628 -19.9535 129.933 0.178885 0.98387 1 0.5 0 1
205 1 29.4834 58.536 0 29.4834 58.536 0 265.92 375.883 -44.6902 -15.7401 -0.946917 0.321478 1 0.5 0 1
206 1 11.1358 0.64338 0 11.1358 0.64338 0 307.607 20.806 45.3767 -106.505 -0.874483 -0.485056 1 0.5 0 1
207 1 20.3614 54.5834 0 20.3614 54.5834 0 -240.143 -534.648 -75.4899 80.4843 -0.188654 0.982044 1 0.5 0 1
208 1 64.476 63.9278 0 64.476 63.9278 0 -692.273 213.879 -79.1526 29.9916 -0.805872 -0.592089 1 0.5 0 1
209 1 56.4977 25.4391 0 56.4977 25.4391 0 102.057 -513.119 -29.5052 -3.31674 -0.391676 0.920103 1 0.5 0 1
210 1 17.4397 7.66786 0 17.4397 86.9339 0 -305.232 218.562 37.5568 32.2553 -0.899499 -0.436923 1 0.5 0 1
211 1 62.4276 34.985 0 62.4276 34.985 0 -229.76 160.555 -189.263 -14.5269 -0.22904 0.973417 1 0.5 0 1
212 1 5.04889 71.4979 0 84.3149 -7.76811 0 -171.799 -414.774 72.769 57.7884 0.888357 0.459154 1 0.5 0 1
213 1 31.1632 63.9612 0 31.1632 63.9612 0 -61.9934 64.9002 20.3322 -3.37 0.81499 -0.579475 1 0.5 0 1
214 1 48.9038 1.58314 0 48.9038 80.8491 0 -183.26 -118.491 -65.5029 3.28675 0.456796 0.889572 1 0.5 0 1
215 1 9.56621 60.1944 0 9.56621 -19.0716 0 -718.831 -1228.35 76.1751 -0.216536 0.968182 0.250247 1 0.5 0 1
216 1 19.3353 10.5112 0 19.3353 89.7772 0 -282.605 1140.05 -13.8319 42.198 0.430511 0.902585 1 0.5 0 1
217 1 48.7693 36.8389 0 48.7693 36.8389 0 -444.158 166.508 89.8026 0.165525 0.0480706 -0.998844 1 0.5 0 1
218 1 24.5134 39.9912 0 24.5134 39.9912 0 -229.35 455.671 40.6016 -2.12109 0.829264 0.558857 1 0.5 0 1
219 1 50.4784 41.0271 0 50.4784 41.0271 0 -104.094 -562.224 91.9844 6.21047 -0.176508 -0.984299 1 0.5 0 1
220 1 60.765 7.09734 0 60.765 7.09734 0 114.003 301.072 -20.4908 -194.175 0.601638 -0.798769 1 0.5 0 1
221 1 48.8659 48.2196 0 48.8659 48.2196 0 214.226 261.337 -1.51841 45.2575 -0.807768 0.589501 1 0.5 0 1
222 1 34.7546 76.2577 0 34.7546 -3.00827 0 -610.863 468.28 -89.0511 -112.453 -0.120953 -0.992658 1 0.5 0 1
223 1 -0.0089813 32.4138 0 -0.0089813 32.4138 0 -199.681 48.2234 90.6228 104.125 -0.588174 0.808734 1 0.5 0 1
224 1 74.4303 61.7975 0 -4.83569 61.7975 0 -513.116 -97.1013 79.8916 -94.633 -0.880917 0.47327 1 0.5 0 1
225 1 78.9112 1.32159 0 78.9112 1.32159 0 127.3 316.744 28.5414 60.7342 0.0261411 -0.999658 1 0.5 0 1
226 1 49.6748 31.0655 0 49.6748 31.0655 0 259.497 -849.308 28.3276 -1.37194 -0.499874 -0.866098 1 0.5 0 1
227 1 72.0267 17.0384 0 72.0267 17.0384 0 90.3819 -76.8101 102.606 41.9017 0.943028 0.332713 1 0.5 0 1
228 1 19.4373 74.1775 0 19.4373 74.1775 0 -90.3858 330.782 -86.7223 44.7142 -0.809358 0.587316 1 0.5 0 1
229 1 59.3943 26.3899 0 59.3943 26.3899 0 -397.75 -243.022 45.7196 138.996 0.973584 0.22833 1 0.5 0 1
230 1 63.3829 23.1971 0 63.3829 102.463 0 153.304 222.972 -7.11589 88.2134 -0.238064 0.971249 1 0.5 0 1
231 1 43.1865 56.0215 0 43.1865 56.0215 0 -69.3983 590.086 23.0193 63.6536 0.697466 0.716617 1 0.5 0 1
232 1 33.4216 60.6695 0 33.4216 -18.5965 0 313.279 -717.844 84.3189 -30.3462 0.772764 -0.634694 1 0.5 0 1
233 1 40.2569 40.0214 0 40.2569 40.0214 0 82.3053 716.354 -84.462 -0.246848 -0.973652 -0.228041 1 0.5 0 1
234 1 38.641 69.0821 0 38.641 -10.1839 0 457.451 19.7025 -40.8053 42.3086 -0.941201 -0.337847 1 0.5 0 1
235 1 21.2697 67.9819 0 21.2697 67.9819 0 -427.139 553.42 -42.8301 -7.13389 -0.758245 0.651969 1 0.5 0 1
236 1 66.4346 65.5172 0 66.4346 65.5172 0 -296.842 202.591 -39.4291 -3.68169 0.997516 -0.0704341 1 0.5 0 1
237 1 36.484 30.5114 0 36.484 30.5114 0 -246.19 736.683 -41.5944 -63.3937 0.620493 0.784212 1 0.5 0 1
238 1 49.036 45.0837 0 49.036 45.0837 0 95.3815 -73.2203 -58.1366 -6.31043 -0.66159 -0.749865 1 0.5 0 1
239 1 7.54463 27.3355 0 86.8106 27.3355 0 -690.879 274.18 -20.9969 -3.21603 0.656776 0.754085 1 0.5 0 1
240 1 14.3892 37.9693 0 14.3892 37.9693 0 397.336 -250.999 -79.9143 23.7028 0.9997 0.0245073 1 0.5 0 1
241 1 52.6019 70.6071 0 52.6019 70.6071 0 109.277 -256.329 -84.7793 -119.732 -0.919402 -0.393318 1 0.5 0 1
242 1 65.6096 69.2811 0 65.6096 -9.98488 0 -390.5 481.789 51.5324 0.850121 0.431875 -0.901933 1 0.5 0 1
243 1 10.5009 69.0044 0 10.5009 69.0044 0 -702.327 -131.609 -76.8233 -41.1209 -0.987424 -0.158092 1 0.5 0 1
244 1 50.2981 39.9931 0 50.2981 39.9931 0 -587.987 125.979 102.336 -34.0199 -0.847914 0.530134 1 0.5 0 1
245 1 53.0443 36.002 0 53.0443 36.002 0 50.2392 -704.55 23.6761 71.9317 0.696504 0.717553 1 0.5 0 1
246 1 23.864 36.4542 0 23.864 36.4542 0 154.141 -632.235 -18.562 67.4688 0.691125 -0.722735 1 0.5 0 1
247 1 59.6899 62.0675 0 59.6899 -17.1985 0 -531.003 -1062.78 89.9013 -6.6481 0.484146 -0.874987 1 0.5 0 1
248 1 67.9568 6.38729 0 -11.3092 85.6533 0 -264.676 671.6 -15.9351 -61.7563 -0.588335 0.808617 1 0.5 0 1
249 1 50.2924 19.3233 0 50.2924 19.3233 0 461.112 1196.21 86.2467 -9.40616 0.980438 -0.196827 1 0.5 0 1
250 1 15.6265 33.3538 0 94.8925 33.3538 0 445.418 -523.233 -27.2326 -3.54759 0.754073 0.65679 1 0.5 0 1
251 1 35.9882 16.2188 0 35.9882 95.4848 0 -812.775 -127.998 75.522 65.5472 0.75522 0.655472 1 0.5 0 1
252 1 19.9919 66.7971 0 19.9919 66.7971 0 -13.2735 17.8757 -158.537 56.5751 -0.0693184 0.997595 1 0.5 0 1
253 1 14.8924 42.4404 0 14.8924 42.4404 0 -273.408 27.5601 -11 99.3932 -0.11 0.993932 1 0.5 0 1
254 1 41.8512 53.8 0 41.8512 53.8 0 -57.2027 -33.616 34.2696 93.9446 0.342696 0.939446 1 0.5 0 1
255 1 6.01094 8.1639 0 85.2769 87.4299 0 -132.313 287.239 14.6957 38.8227 0.310639 0.950528 1 0.5 0 1
256 1 70.3527 36.9665 0 -8.91334 36.9665 0 -4.67254 525.558 9.56466 -20.073 -0.92867 -0.370908 1 0.5 0 1
257 1 29.2801 7.41533 0 29.2801 86.6813 0 -539.007 -1039.04 -71.9532 28.6018 -0.571657 0.820492 1 0.5 0 1
258 1 24.5336 18.9652 0 24.5336 18.9652 0 -0.55211 -452.061 68.9001 11.5826 0.874481 -0.48506 1 0.5 0 1
259 1 7.86433 13.714 0 87.1303 13.714 0 63.2347 -177.23 24.0349 85.0801 0.284077 0.958801 1 0.5 0 1
260 1 2.93762 46.9645 0 82.2036 46.9645 0 686.973 494.125 -84.156 -192.119 0.913185 -0.407545 1 0.5 0 1
261 1 10.8686 25.374 0 10.8686 25.374 0 -564.67 -62.8976 -32.6249 46.0667 0.634605 -0.772837 1 0.5 0 1
262 1 23.2302 13.7267 0 102.496 13.7267 0 462.111 -382.581 36.7518 93.5786 0.852436 0.522831 1 0.5 0 1
263 1 4.69365 2.47256 0 4.69365 2.47256 0 223.869 -1200.16 20.4996 -125.974 -0.867279 -0.497822 1 0.5 0 1
264 1 12.686 24.0638 0 91.952 24.0638 0 -465.3 446.474 -87.5472 -18.1705 0.932055 0.362318 1 0.5 0 1
265 1 15.7395 1.37708 0 15.7395 80.6431 0 -125.426 -264.603 -20.9265 -79.1503 -0.455052 0.890465 1 0.5 0 1
266 1 43.7204 59.4782 0 43.7204 59.4782 0 -317.928 -63.3717 -78.276 -72.088 0.867958 -0.496638 1 0.5 0 1
267 1 15.4693 14.1892 0 15.4693 14.1892 0 542.678 44.186 58.0699 -181.071 -0.0152708 -0.999883 1 0.5 0 1
268 1 68.1525 78.9906 0 68.1525 78.9906 0 -15.6998 -384.506 8.17641 96.3608 0.869134 -0.494577 1 0.5 0 1
269 1 32.1319 19.8259 0 111.398 19.8259 0 170.731 -279.092 91.916 -39.3885 0.91916 -0.393885 1 0.5 0 1
270 1 11.3712 14.0463 0 90.6372 14.0463 0 52.3659 -47.8195 178.174 53.6232 0.930879 -0.365327 1 0.5 0 1
271 1 32.6394 54.3662 0 32.6394 54.3662 0 560.834 -257.831 -39.8312 -2.32094 0.538131 -0.842861 1 0.5 0 1
272 1 59.1359 25.4348 0 59.1359 25.4348 0 -536.733 708.497 83.4792 -180.878 0.75878 0.651347 1 0.5 0 1
273 1 47.5242 43.4045 0 47.5242 43.4045 0 409.938 160.995 76.5323 104.75 0.979587 -0.201018 1 0.5 0 1
274 1 35.4722 77.0122 0 35.4722 -2.25376 0 -214.697 213.869 50.3024 -23.3578 -0.205634 -0.978629 1 0.5 0 1
275 1 38.3862 72.3992 0 38.3862 -6.86682 0 5.55354 -371.401 24.5605 58.0773 0.385734 -0.92261 1 0.5 0 1
276 1 55.0396 36.3333 0 55.0396 36.3333 0 -347.627 533.958 78.3796 -27.6087 0.992254 0.124227 1 0.5 0 1
277 1 63.4812 48.8357 0 -15.7848 48.8357 0 -457.351 -150.213 -102.718 -28.6031 -0.866114 -0.499847 1 0.5 0 1
278 1 10.3845 57.166 0 10.3845 57.166 0 351.429 -84.4841 -17.8447 98.395 -0.178447 0.98395 1 0.5 0 1
279 1 76.1935 30.801 0 76.1935 30.801 0 -711.106 -85.9396 99.1319 -48.3061 0.985794 -0.167957 1 0.5 0 1
280 1 65.8412 77.1297 0 65.8412 -2.13627 0 585.464 164.33 -2.52411 -5.22336 0.130447 -0.991455 1 0.5 0 1
281 1 54.0084 44.1901 0 54.0084 44.1901 0 410.364 206.831 -107.754 39.4681 0.554019 0.832504 1 0.5 0 1
282 1 36.2725 19.0814 0 36.2725 19.0814 0 416.095 889.398 44.8786 20.7388 -0.0841975 -0.996449 1 0.5 0 1
283 1 8.02766 0.698734 0 8.02766 79.9647 0 -558.306 -592.128 -37.4371 92.7279 -0.374371 0.927279 1 0.5 0 1
284 1 0.81609 75.4794 0 0.81609 75.4794 0 -201.697 -146.89 -71.7293 69.6355 -0.878866 0.477068 1 0.5 0 1
285 1 75.2818 31.7637 0 75.2818 31.7637 0 620.496 464.513 31.8447 -42.8863 -0.480866 -0.876794 1 0.5 0 1
286 1 12.0334 52.2968 0 12.0334 52.2968 0 -46.0928 -310.657 -65.1944 59.7198 -0.844272 0.535915 1 0.5 0 1