ITEM: TIMESTEP
250000
ITEM: NUMBER OF ATOMS
4000
ITEM: BOX BOUNDS pp pp pp
0.0000000000000000e+00 7.9266000000000005e+01
0.0000000000000000e+00 7.9266000000000005e+01
-5.0000000000000000e-01 5.0000000000000000e-01
ITEM: ATOMS id type x y z xu yu zu vx vy fx fy mux muy mu radius omegaz mass
1 1 1.09631 63.2534 0 80.3623 63.2534 0 211.964 647.435 -96.0539 133.043 -0.987561 0.157236 1 0.5 0 1
2 1 36.9023 72.5397 0 36.9023 -6.72629 0 431.235 -475.225 -6.84407 77.8538 0.492802 0.870141 1 0.5 0 1
3 1 16.2514 35.6882 0 16.2514 -43.5778 0 -326.737 513.667 73.0942 -240.461 -0.995102 -0.0988531 1 0.5 0 1
4 1 40.6204 64.5974 0 40.6204 64.5974 0 -144.7 -468.066 70.4835 -16.2616 -0.817852 -0.575428 1 0.5 0 1
5 1 3.4719 30.0181 0 3.4719 30.0181 0 237.806 747.727 -9.30791 -13.4703 -0.991364 0.131136 1 0.5 0 1
6 1 70.8158 27.5662 0 -8.45018 27.5662 0 -658.03 460.327 170.62 20.1114 -0.767216 0.641388 1 0.5 0 1
7 1 67.8458 47.8896 0 67.8458 47.8896 0 473.075 -81.56 35.5429 128.236 0.990872 0.134803 1 0.5 0 1
8 1 19.0495 40.5191 0 19.0495 -38.7469 0 145.314 -1068.11 -28.6091 -10.1329 -0.486629 -0.873609 1 0.5 0 1
9 1 70.1346 24.5856 0 70.1346 24.5856 0 -597.56 -549.251 -169.646 -120.821 -0.0523619 -0.998628 1 0.5 0 1
10 1 17.01 47.8927 0 17.01 47.8927 0 541.633 -206.967 -26.9562 117.821 -0.977246 -0.212108 1 0.5 0 1
11 1 38.8485 74.7921 0 -40.4175 -4.47391 0 -454.504 756.776 -85.5228 -48.8612 -0.82726 -0.56182 1 0.5 0 1
12 1 2.03682 20.9651 0 81.3028 100.231 0 -73.8712 -18.279 144.931 24.8273 -0.00856084 0.999963 1 0.5 0 1
13 1 62.4413 3.55679 0 62.4413 3.55679 0 -251.052 -349.133 -0.541618 20.664 0.971336 -0.237709 1 0.5 0 1
14 1 58.9903 9.96317 0 -99.5417 9.96317 0 158.353 361.995 -12.0785 82.8525 -0.873059 0.487615 1 0.5 0 1
15 1 10.7199 32.4902 0 10.7199 32.4902 0 -276.072 572.972 20.6526 -0.272101 -0.45186 0.892089 1 0.5 0 1
16 1 19.9731 48.45 0 -59.2929 -30.816 0 313.247 587.123 -80.9398 -124.301 -0.592671 -0.805444 1 0.5 0 1
17 1 36.2499 26.911 0 115.516 106.177 0 142.681 159.793 57.2681 -78.8587 0.937344 0.348406 1 0.5 0 1
18 1 15.4176 52.0389 0 15.4176 52.0389 0 197.401 403.422 -54.6494 -120.655 0.420097 -0.907479 1 0.5 0 1
19 1 5.00895 39.2985 0 5.00895 39.2985 0 118.652 94.0223 -35.3041 -37.1075 0.704578 0.709627 1 0.5 0 1
20 1 14.1975 54.3789 0 14.1975 54.3789 0 242.908 455.625 63.6294 -118.183 0.352831 -0.935687 1 0.5 0 1
21 1 5.4929 26.0461 0 5.4929 26.0461 0 435.65 -475.855 -29.829 58.5335 -0.453313 0.891351 1 0.5 0 1
22 1 1.8842 18.9142 0 81.1502 18.9142 0 -386.626 -715.771 56.5997 136.041 -0.669769 -0.74257 1 0.5 0 1
23 1 17.6299 23.7653 0 96.8959 23.7653 0 -644.953 687.444 -72.9817 59.6786 -0.418269 0.908323 1 0.5 0 1
24 1 66.5211 55.6565 0 66.5211 -23.6095 0 399.411 -596.552 -204.011 46.5058 0.863056 0.505109 1 0.5 0 1
25 1 43.0145 34.039 0 -36.2515 -45.227 0 779.66 -363.163 61.1801 103.406 0.821771 -0.569818 1 0.5 0 1
26 1 54.3362 76.0171 0 54.3362 -82.5149 0 61.684 -387.276 6.1497 -91.5622 0.0836114 -0.996498 1 0.5 0 1
27 1 72.6909 12.8113 0 -6.57514 92.0773 0 68.1122 98.2962 -16.1593 -49.0091 -0.480084 0.877223 1 0.5 0 1
28 1 20.232 70.8959 0 20.232 70.8959 0 144.57 -688.63 -15.2218 98.8347 -0.152218 0.988347 1 0.5 0 1
29 1 74.879 36.9376 0 -4.38696 36.9376 0 -392.421 203.299 -162 -135.079 0.196073 0.980589 1 0.5 0 1
30 1 62.3331 15.7359 0 62.3331 95.0019 0 709.006 -4.73101 -94.1232 147.008 0.640582 0.76789 1 0.5 0 1
31 1 75.7609 24.4761 0 -3.50507 24.4761 0 430.851 -451.207 13.3539 -95.926 -0.917811 -0.397017 1 0.5 0 1
32 1 11.5106 24.0774 0 11.5106 24.0774 0 -3.53237 -401.358 62.0627 1.64764 -0.930019 -0.367511 1 0.5 0 1
33 1 64.9253 56.939 0 64.9253 -22.327 0 159.978 658.729 -34.6676 14.9962 0.962053 0.272863 1 0.5 0 1
34 1 6.39831 42.6873 0 85.6643 42.6873 0 -709.913 -497.041 202.796 -122.828 -0.613083 0.790018 1 0.5 0 1
35 1 17.6446 63.8854 0 -61.6214 63.8854 0 -148.474 -154.842 -24.3894 -76.3927 -0.312561 -0.949898 1 0.5 0 1
36 1 60.5756 56.1259 0 60.5756 -23.1401 0 13.5582 -674.139 -133.579 -119.457 0.838095 0.545524 1 0.5 0 1
37 1 70.5307 40.8179 0 70.5307 40.8179 0 30.631 365.42 403.063 82.781 0.335248 0.94213 1 0.5 0 1
38 1 47.3722 3.89798 0 126.638 83.164 0 -501.05 938.215 40.6174 55.3429 0.99982 0.0189844 1 0.5 0 1
39 1 69.8969 77.703 0 69.8969 -80.829 0 -78.1162 -130.804 78.6325 -89.3118 0.840906 -0.541181 1 0.5 0 1
40 1 16.5376 65.1427 0 -62.7284 65.1427 0 -82.6268 -116.323 37.6332 92.6485 0.376332 0.926485 1 0.5 0 1
41 1 69.297 51.1674 0 69.297 51.1674 0 -199.112 605.402 -263.172 -35.256 -0.563061 0.826415 1 0.5 0 1
42 1 74.5106 58.0965 0 -4.75545 58.0965 0 -60.2191 -253.038 16.5586 77.1144 -0.320565 -0.947226 1 0.5 0 1
43 1 14.7372 15.7479 0 -64.5288 95.0139 0 -1211.42 -938.804 -86.6147 49.9789 -0.866147 0.499789 1 0.5 0 1
44 1 65.8398 20.0714 0 65.8398 99.3374 0 580.738 -177.153 -17.2227 -303.463 -0.973779 -0.227496 1 0.5 0 1
45 1 41.6854 64.601 0 41.6854 -14.665 0 -668.024 258.202 -11.3601 -59.0013 -0.678902 -0.734229 1 0.5 0 1
46 1 7.65048 39.5844 0 7.65048 39.5844 0 -636.579 78.7624 73.7099 93.9712 0.0599181 0.998203 1 0.5 0 1
47 1 58.5672 59.1903 0 58.5672 -20.0757 0 704.022 322.031 -157.877 -43.9272 0.332564 -0.943081 1 0.5 0 1
48 1 11.832 44.1981 0 11.832 44.1981 0 -47.0445 -343.173 -278.092 88.4378 -0.88648 -0.462767 1 0.5 0 1
49 1 1.43117 9.94436 0 80.6972 89.2104 0 753.939 573.035 -59.7004 -87.2656 -0.806392 0.591382 1 0.5 0 1
50 1 47.1506 26.4071 0 47.1506 26.4071 0 764.232 -579.626 39.0058 -55.1482 -0.758443 0.65174 1 0.5 0 1
51 1 71.8673 10.889 0 -7.39871 10.889 0 160.265 -327.53 -111.482 147.973 -0.821462 -0.570264 1 0.5 0 1
52 1 5.12198 31.1 0 84.388 31.1 0 -448.334 -312.947 -5.77098 -19.4481 -0.16223 0.986753 1 0.5 0 1
53 1 11.1428 53.5192 0 11.1428 132.785 0 123.57 -188.066 35.4967 41.4723 -0.975505 -0.219978 1 0.5 0 1
54 1 54.9269 28.067 0 54.9269 28.067 0 -551.671 -640.56 12.2234 308.488 -0.867962 -0.49663 1 0.5 0 1
55 1 44.1199 28.5372 0 123.386 107.803 0 -221.785 322.173 -24.8195 -19.6563 -0.0594131 0.998233 1 0.5 0 1
56 1 18.4335 45.4282 0 18.4335 45.4282 0 -570.116 284.374 -96.8391 -4.0735 0.690229 0.723591 1 0.5 0 1
57 1 37.8476 7.93226 0 37.8476 87.1983 0 80.5898 444.849 82.882 97.8633 0.0478377 0.998855 1 0.5 0 1
58 1 69.3579 25.3248 0 -9.90807 25.3248 0 -177.323 709.7 -53.5555 24.6386 -0.87474 0.484592 1 0.5 0 1
59 1 52.9991 32.1657 0 52.9991 32.1657 0 -1066.62 292.254 193.833 3.83319 -0.999284 -0.0378269 1 0.5 0 1
60 1 57.2277 39.2324 0 57.2277 39.2324 0 236.04 446.371 -1.04688 -73.2195 -0.405145 -0.914252 1 0.5 0 1
61 1 59.8134 42.8422 0 59.8134 42.8422 0 80.8474 490.285 77.5444 -5.72356 0.427453 0.904038 1 0.5 0 1
62 1 38.7196 15.4475 0 117.986 15.4475 0 686.884 79.8249 96.223 27.2236 0.96223 0.272236 1 0.5 0 1
63 1 11.2097 66.9341 0 -68.0563 -12.3319 0 308.655 384.281 -18.8839 -117.421 0.0067445 -0.999977 1 0.5 0 1
64 1 45.4896 26.7759 0 124.756 106.042 0 996.134 -183.36 10.1434 7.64602 0.782771 0.62231 1 0.5 0 1
65 1 58.2053 19.2468 0 137.471 98.5128 0 77.9993 244.396 -49.4193 -34.0979 0.992984 -0.11825 1 0.5 0 1
66 1 16.3255 41.2431 0 95.5915 120.509 0 -180.8 78.463 20.4858 -24.9309 -0.03576 0.99936 1 0.5 0 1
67 1 55.1836 41.2937 0 55.1836 41.2937 0 -67.8267 379.735 39.5587 -185.537 0.792769 -0.609523 1 0.5 0 1
68 1 16.4225 38.7718 0 16.4225 38.7718 0 -731.016 -448.943 182.497 -47.0618 -0.992977 -0.118308 1 0.5 0 1
69 1 18.2061 51.7564 0 18.2061 51.7564 0 285.619 -775.357 -23.6436 123.329 0.484424 -0.874833 1 0.5 0 1
70 1 49.8195 36.6286 0 49.8195 115.895 0 -225.912 -106.733 -57.2479 133.951 0.896439 0.443167 1 0.5 0 1
71 1 74.5772 8.30074 0 74.5772 8.30074 0 -628.166 -783.948 -129.43 52.7308 0.0329857 0.999456 1 0.5 0 1
72 1 3.53418 55.0509 0 3.53418 55.0509 0 -29.5639 223.206 134.676 -52.9215 -0.216363 -0.976313 1 0.5 0 1
73 1 10.9168 25.7833 0 10.9168 25.7833 0 362.398 -1109.73 -12.6746 -13.4277 -0.711828 -0.702353 1 0.5 0 1
74 1 66.3352 12.1795 0 66.3352 91.4455 0 88.1076 233.098 -139.837 -54.5672 -0.756687 0.653777 1 0.5 0 1
75 1 76.2833 35.6243 0 -2.98271 35.6243 0 43.8488 641.488 87.8589 52.1625 0.258097 0.966119 1 0.5 0 1
76 1 49.4776 27.9337 0 -29.7884 27.9337 0 -484.99 61.1287 105.566 47.8473 0.0898401 0.995956 1 0.5 0 1
77 1 78.8457 32.0705 0 -0.42035 32.0705 0 70.7429 -151.119 -140.91 172.805 0.627836 0.778345 1 0.5 0 1
78 1 36.1252 73.2097 0 36.1252 73.2097 0 234.979 126.416 184.29 -74.1408 0.997524 0.0703216 1 0.5 0 1
79 1 0.854842 70.4851 0 0.854842 70.4851 0 -13.1484 -303.788 150.863 108.327 -0.979388 0.20199 1 0.5 0 1
80 1 1.71604 24.6694 0 1.71604 -54.5966 0 -335.079 -273.637 -12.0341 105.623 0.204357 0.978896 1 0.5 0 1
81 1 48.4142 34.1946 0 127.68 34.1946 0 392.686 -176.627 -67.4258 80.6752 0.343539 -0.939138 1 0.5 0 1
82 1 1.63719 36.2236 0 1.63719 36.2236 0 -60.8611 -540.1 79.9654 37.2996 0.131574 0.991306 1 0.5 0 1
83 1 31.0179 41.372 0 110.284 120.638 0 327.929 262.224 78.2614 74.0538 0.834412 0.551142 1 0.5 0 1
84 1 77.1359 42.9205 0 -2.13007 42.9205 0 -206.028 713.499 -64.0766 -178.999 -0.963746 -0.266822 1 0.5 0 1
85 1 43.034 60.5762 0 43.034 -18.6898 0 -658.978 -140.688 94.1735 -18.7094 0.962064 0.272825 1 0.5 0 1
86 1 11.9174 37.7409 0 11.9174 37.7409 0 -336.711 -234.174 -60.7338 -123.941 -0.967526 -0.252772 1 0.5 0 1
87 1 12.0791 39.6688 0 12.0791 39.6688 0 -394.013 -394.324 44.9173 201.379 -0.989338 0.145639 1 0.5 0 1
88 1 33.0765 1.65035 0 33.0765 1.65035 0 260.804 -393.582 34.4062 -0.855238 0.242138 -0.970242 1 0.5 0 1
89 1 33.2577 42.9681 0 33.2577 42.9681 0 81.3837 108.187 137.153 3.36706 0.665971 -0.745978 1 0.5 0 1
90 1 5.04026 35.6582 0 5.04026 35.6582 0 -460.117 -9.63026 33.8626 -30.2985 -0.986755 -0.162217 1 0.5 0 1
91 1 17.3839 56.3945 0 17.3839 -22.8715 0 -276.962 739.229 66.0518 -151.508 -0.306691 -0.951809 1 0.5 0 1
92 1 3.00181 52.1407 0 3.00181 52.1407 0 -75.9233 669.74 -96.6452 -50.5514 -0.847961 0.530058 1 0.5 0 1
93 1 2.15061 42.694 0 2.15061 42.694 0 176.232 110.473 13.9899 -29.8004 0.125719 0.992066 1 0.5 0 1
94 1 70.8626 34.7046 0 70.8626 34.7046 0 149.713 -409.459 50.7953 -205.078 0.617351 -0.786688 1 0.5 0 1
95 1 67.6778 46.9238 0 67.6778 46.9238 0 -804.174 84.0982 -126.799 -15.2316 0.989372 0.145408 1 0.5 0 1
96 1 54.9332 40.2879 0 54.9332 40.2879 0 -371.725 483.781 44.6062 132.397 0.989268 0.146112 1 0.5 0 1
97 1 39.3348 6.23508 0 39.3348 6.23508 0 -76.3321 901.509 -65.0832 -64.7539 -0.357526 -0.933903 1 0.5 0 1
98 1 47.3682 65.1206 0 47.3682 65.1206 0 -605.504 -585.072 -87.249 -48.8632 -0.87249 -0.488632 1 0.5 0 1
99 1 44.2445 39.2208 0 44.2445 -40.0452 0 294.555 480.791 16.9647 24.1386 0.970961 0.239238 1 0.5 0 1
100 1 73.3547 41.6894 0 73.3547 41.6894 0 322.363 727.799 -92.2349 117.934 -0.736666 -0.676257 1 0.5 0 1
101 1 50.0736 45.852 0 50.0736 -33.414 0 -464.046 -138.503 20.2865 -46.0614 0.945033 0.326976 1 0.5 0 1
102 1 79.0959 40.0413 0 -0.170082 40.0413 0 -27.9255 -534.421 252.837 15.8788 -0.823931 0.56669 1 0.5 0 1
103 1 28.3097 40.0361 0 -50.9563 119.302 0 -1097.38 262.654 -70.2043 71.2134 -0.702043 0.712134 1 0.5 0 1
104 1 54.4972 41.9528 0 54.4972 121.219 0 -201.488 -512.378 18.9022 67.1336 0.774931 0.632046 1 0.5 0 1
105 1 66.1654 10.2404 0 -13.1006 10.2404 0 9.98948 175.11 17.7736 53.8871 0.732224 0.681064 1 0.5 0 1
106 1 77.1032 76.7324 0 -2.16276 -2.5336 0 243.018 250.935 22.3238 -97.4764 0.223238 -0.974764 1 0.5 0 1
107 1 62.3481 35.5657 0 62.3481 35.5657 0 -500.567 316.498 180.231 -24.0105 -0.2841 -0.958795 1 0.5 0 1
108 1 0.269735 33.8928 0 0.269735 113.159 0 413.164 -712.437 -3.16728 149.275 0.94394 0.330117 1 0.5 0 1
109 1 38.6178 67.8851 0 -40.6482 67.8851 0 -381.625 168.933 9.15496 -8.64979 -0.393738 0.919223 1 0.5 0 1
110 1 49.3651 30.75 0 49.3651 30.75 0 73.7941 -91.0586 -55.001 80.4798 0.470622 0.882335 1 0.5 0 1
111 1 68.7859 9.45683 0 68.7859 88.7228 0 440.78 236.424 16.5096 -23.3099 0.321843 0.946793 1 0.5 0 1
112 1 10.6192 46.9771 0 10.6192 46.9771 0 24.2247 258.016 -6.25148 -47.115 -0.400718 -0.916202 1 0.5 0 1
113 1 22.4333 70.4157 0 -56.8327 70.4157 0 -1137.89 503.788 25.4646 100.306 0.0997213 0.995015 1 0.5 0 1
114 1 53.8547 52.6821 0 53.8547 52.6821 0 241.187 -92.347 -47.3413 -16.7116 0.812438 -0.583048 1 0.5 0 1
115 1 12.0028 79.0972 0 12.0028 -0.168767 0 -241.764 431.276 90.499 5.08306 0.990174 0.139839 1 0.5 0 1
116 1 22.0441 45.0009 0 22.0441 -34.2651 0 -376.518 689.909 -64.5447 84.9132 -0.73631 -0.676645 1 0.5 0 1
117 1 27.2493 24.6392 0 27.2493 24.6392 0 -277.125 588.406 41.4329 -91.0127 0.414329 -0.910127 1 0.5 0 1
118 1 55.6282 39.6255 0 55.6282 39.6255 0 78.0944 -39.1015 3.03463 -49.7071 0.93484 -0.355069 1 0.5 0 1
119 1 23.0942 8.92466 0 102.36 8.92466 0 -1085.78 563.921 -38.0634 22.5155 0.868594 0.495524 1 0.5 0 1
120 1 47.2071 52.373 0 126.473 -26.893 0 7.01252 -54.8028 -24.7179 -90.9022 -0.0945653 -0.995519 1 0.5 0 1
121 1 66.3286 68.3536 0 -92.2034 -10.9124 0 -206.76 -687.185 -72.5795 -68.7911 -0.725795 -0.687911 1 0.5 0 1
122 1 54.0825 20.8896 0 54.0825 100.156 0 -730.085 -544.295 -47.0436 -74.3012 -0.900837 0.434158 1 0.5 0 1
123 1 75.5818 29.0818 0 -3.68425 29.0818 0 -390.07 -136.917 61.177 51.5865 -0.882456 0.470395 1 0.5 0 1
124 1 16.181 28.7926 0 16.181 28.7926 0 127.888 -222.982 3.96324 -53.0067 0.053543 -0.998566 1 0.5 0 1
125 1 67.6552 25.6989 0 67.6552 25.6989 0 -110.492 -227.117 -142.42 42.5165 0.633725 -0.773559 1 0.5 0 1
126 1 8.92354 32.6729 0 88.1895 111.939 0 -351.725 -382.742 -87.475 105.804 -0.158072 0.987428 1 0.5 0 1
127 1 59.3442 29.1057 0 59.3442 108.372 0 82.04 -46.8422 -65.4105 51.2917 0.802064 0.597238 1 0.5 0 1
128 1 4.18791 23.6544 0 -75.0781 23.6544 0 -608.784 447.522 115.787 -19.6319 -0.260952 -0.965352 1 0.5 0 1
129 1 68.2392 55.3548 0 68.2392 -23.9112 0 -504.516 248.653 -251.337 257.991 0.508704 -0.860941 1 0.5 0 1
130 1 73.9816 54.165 0 73.9816 -25.101 0 -402.33 -455.38 280.587 -73.9638 -0.0288419 -0.999584 1 0.5 0 1
131 1 61.9074 12.8185 0 -17.3586 92.0845 0 504.357 -255.512 43.5164 12.4759 0.994102 -0.108452 1 0.5 0 1
132 1 61.2317 30.8677 0 -18.0343 110.134 0 -547.131 552.542 280.61 14.1448 0.131306 0.991342 1 0.5 0 1
133 1 35.42 47.7341 0 35.42 127 0 68.1138 471.875 -40.4377 91.4592 -0.404377 0.914592 1 0.5 0 1
134 1 13.4581 35.4941 0 13.4581 35.4941 0 -98.9246 -605.866 75.942 128.304 -0.999987 -0.00513134 1 0.5 0 1
135 1 13.9104 49.8417 0 13.9104 129.108 0 -317.003 -23.0287 -35.5142 -26.3128 -0.0138513 0.999904 1 0.5 0 1
136 1 39.1889 7.28985 0 39.1889 86.5559 0 545.074 -52.0381 67.0003 -9.27844 0.748849 -0.662741 1 0.5 0 1
137 1 52.6469 24.2525 0 131.913 103.519 0 125.78 -445.527 -10.3854 -28.8969 -0.981102 -0.193491 1 0.5 0 1
138 1 48.3409 52.843 0 -30.9251 -26.423 0 363.711 128.874 25.9434 37.9277 0.0160541 -0.999871 1 0.5 0 1
139 1 43.9245 41.8712 0 43.9245 -37.3948 0 570.701 824.091 -62.1574 -155.77 0.913561 -0.406701 1 0.5 0 1
140 1 29.7282 3.09014 0 29.7282 3.09014 0 -384.907 255.571 -99.9997 -0.238998 -0.999997 -0.00238998 1 0.5 0 1
141 1 8.93053 55.5623 0 8.93053 55.5623 0 381.775 449.617 135.239 -255.534 0.740053 0.672549 1 0.5 0 1
142 1 78.7675 0.619018 0 -0.498464 79.885 0 -569.656 143.237 -90.9633 41.5413 -0.909633 0.415413 1 0.5 0 1
143 1 10.6978 33.4924 0 10.6978 112.758 0 796.731 433.004 -166.379 -233.327 -0.479965 0.877288 1 0.5 0 1
144 1 22.6752 48.4139 0 22.6752 -30.8521 0 170.427 309.424 14.2845 -64.2624 -0.940002 0.341169 1 0.5 0 1
145 1 78.2785 15.0966 0 78.2785 94.3626 0 -280.859 -92.425 13.2149 29.7669 -0.241334 -0.970442 1 0.5 0 1
146 1 57.7658 59.8962 0 57.7658 -19.3698 0 -1214.4 -239.615 67.5896 156.893 0.893595 -0.448874 1 0.5 0 1
147 1 1.20107 67.0591 0 80.4671 -12.2069 0 104.801 -53.8883 -32.4289 -46.9295 0.283802 -0.958883 1 0.5 0 1
148 1 38.9921 52.1739 0 118.258 52.1739 0 -165.296 -10.4709 71.1524 -52.4973 0.804982 0.593299 1 0.5 0 1
149 1 73.0077 29.0919 0 73.0077 108.358 0 92.4962 253.321 -223.621 131.132 -0.106771 -0.994284 1 0.5 0 1
150 1 68.0305 33.8064 0 -11.2355 33.8064 0 464.407 -203.507 -203.591 124.089 0.258744 0.965946 1 0.5 0 1
151 1 2.60356 54.6833 0 81.8696 -24.5827 0 -208.791 62.0911 -49.7647 175.961 -0.475842 0.879531 1 0.5 0 1
152 1 41.7626 8.29029 0 41.7626 87.5563 0 603.599 143.164 60.5568 -96.4955 0.18885 -0.982006 1 0.5 0 1
153 1 76.2094 57.8712 0 76.2094 57.8712 0 161.852 95.4867 64.4264 -106.713 0.903417 -0.428763 1 0.5 0 1
154 1 2.84754 46.6164 0 2.84754 46.6164 0 -459.283 139.267 -10.2777 43.6811 -0.754601 -0.656184 1 0.5 0 1
155 1 64.2475 63.5117 0 -94.2845 -15.7543 0 -622.871 -31.8972 12.5287 -30.6122 0.859246 -0.511563 1 0.5 0 1
156 1 74.3961 46.4048 0 74.3961 46.4048 0 22.0595 373.474 -62.1399 -326.744 -0.813732 0.581241 1 0.5 0 1
157 1 7.22746 25.5619 0 7.22746 25.5619 0 462.381 -141.546 -68.6001 54.9099 0.604025 0.796966 1 0.5 0 1
158 1 67.9748 37.3388 0 -11.2912 37.3388 0 -224.367 -548.003 -27.7136 108.264 -0.590852 -0.80678 1 0.5 0 1
159 1 39.9742 65.4532 0 39.9742 65.4532 0 -469.139 72.2518 -80.4948 -63.0508 -0.979003 -0.203847 1 0.5 0 1
160 1 4.89177 14.2183 0 4.89177 14.2183 0 669.303 82.58 -61.8044 -77.5445 -0.788184 -0.61544 1 0.5 0 1
161 1 30.5793 61.7089 0 30.5793 -17.5571 0 446.953 634.487 -8.38 -49.8368 0.999975 -0.00711744 1 0.5 0 1
162 1 5.97321 49.727 0 5.97321 49.727 0 -287.612 478.335 198.753 98.0813 -0.206218 -0.978506 1 0.5 0 1
163 1 64.3323 47.41 0 64.3323 47.41 0 39.73 28.5779 -122.609 -140.198 -0.529037 0.848599 1 0.5 0 1
164 1 51.117 13.3377 0 51.117 13.3377 0 -758.118 -212.085 -4.43841 -44.6397 0.249819 -0.968293 1 0.5 0 1
165 1 23.5169 64.6422 0 23.5169 -14.6238 0 -19.627 -516.603 -54.276 -19.5746 -0.754854 0.655893 1 0.5 0 1
166 1 10.5867 41.7843 0 10.5867 41.7843 0 176.847 -592.404 -132.657 165.085 -0.828289 0.560302 1 0.5 0 1
167 1 66.9098 26.3589 0 66.9098 26.3589 0 432.89 164.849 -10.5511 -27.6192 0.936227 -0.351397 1 0.5 0 1
168 1 59.3119 8.03439 0 -19.9541 87.3004 0 -526.855 107.473 85.07 109.51 -0.881204 0.472736 1 0.5 0 1
169 1 73.9505 71.6469 0 -5.31552 150.913 0 -293.326 336.861 24.2175 97.2454 -0.999891 0.0147648 1 0.5 0 1
170 1 14.7808 46.4239 0 94.0468 125.69 0 7.37965 595.519 86.1433 -65.8933 -0.704196 0.710005 1 0.5 0 1
171 1 49.2729 25.7549 0 128.539 25.7549 0 1200.59 -442.618 -23.8677 -12.8974 0.99727 0.0738379 1 0.5 0 1
172 1 7.20106 55.7147 0 7.20106 -23.5513 0 34.7534 420.757 21.5091 -77.1563 -0.699065 -0.715058 1 0.5 0 1
173 1 18.2683 49.047 0 18.2683 -30.219 0 197.441 -305.081 -39.8746 235.24 -0.713608 -0.700545 1 0.5 0 1
174 1 8.63542 49.8744 0 8.63542 49.8744 0 14.9733 -745.371 -193.059 151.829 -0.824235 0.566248 1 0.5 0 1
175 1 70.8102 8.79712 0 -8.45584 8.79712 0 -85.7172 -626.958 -6.8703 -30.0045 -0.557633 -0.830087 1 0.5 0 1
176 1 10.0884 48.5991 0 10.0884 48.5991 0 -239.318 762.124 180.084 93.6337 0.0294784 0.999565 1 0.5 0 1
177 1 7.0208 62.4246 0 7.0208 62.4246 0 159.65 -820.547 28.2787 -64.1838 -0.997349 -0.0727673 1 0.5 0 1
178 1 59.1835 27.1382 0 -20.0825 106.404 0 544.254 -206.007 -99.6336 -79.5947 -0.202548 0.979272 1 0.5 0 1
179 1 3.94831 52.5093 0 3.94831 -26.7567 0 -599.585 -66.4765 -58.3654 59.2273 0.419507 -0.907752 1 0.5 0 1
180 1 74.5793 39.4581 0 74.5793 39.4581 0 -132.984 113.51 74.0007 -70.151 -0.173736 0.984792 1 0.5 0 1
181 1 61.7251 16.5522 0 61.7251 16.5522 0 -244.177 162.881 -69.3412 -76.2 -0.429094 0.90326 1 0.5 0 1
182 1 54.7719 73.2168 0 -24.4941 73.2168 0 933.098 -224.823 -87.3618 48.6612 -0.873618 0.486612 1 0.5 0 1
183 1 59.4724 54.787 0 59.4724 -24.479 0 1042.51 92.3978 -4.60476 -84.8714 -0.269063 0.963123 1 0.5 0 1
184 1 64.4209 40.6622 0 64.4209 40.6622 0 180.349 209.704 -148.343 18.8501 -0.961359 -0.275298 1 0.5 0 1
185 1 13.849 25.927 0 13.849 25.927 0 -349.429 -987.535 13.639 -99.0655 0.13639 -0.990655 1 0.5 0 1
186 1 72.6126 7.77575 0 -6.65343 87.0417 0 361.958 -26.3515 25.6184 -27.1652 -0.941476 0.33708 1 0.5 0 1
187 1 57.4127 33.006 0 -21.8533 112.272 0 -618.334 -189.043 16.2852 -89.0095 0.797849 0.602857 1 0.5 0 1
188 1 33.8355 78.5178 0 113.101 78.5178 0 -567.12 50.7782 34.0432 67.6932 0.832949 0.55335 1 0.5 0 1
189 1 24.3065 41.6837 0 24.3065 41.6837 0 -650.041 234.788 81.2714 -134.182 -0.194871 0.980829 1 0.5 0 1
190 1 20.802 51.6796 0 -58.464 51.6796 0 819.603 22.7596 -89.3959 19.0189 -0.849701 0.527266 1 0.5 0 1
191 1 65.8909 16.5364 0 145.157 16.5364 0 311.502 82.3575 -123.939 59.8185 0.641393 -0.767212 1 0.5 0 1
192 1 59.7525 35.5819 0 59.7525 35.5819 0 -1046.28 570.007 116.739 58.0352 -0.174391 -0.984676 1 0.5 0 1
193 1 40.7605 57.1343 0 -38.5055 57.1343 0 -1139.19 -116.625 40.0183 10.4403 0.894381 0.447306 1 0.5 0 1
194 1 15.9501 29.7993 0 15.9501 29.7993 0 161.337 -351.507 -21.9761 21.0968 0.0576578 -0.998336 1 0.5 0 1
195 1 55.8236 28.5028 0 55.8236 28.5028 0 -87.966 -553.599 -104.885 -59.4283 -0.998984 0.0450636 1 0.5 0 1
196 1 59.7765 39.1494 0 59.7765 39.1494 0 298.996 -1114.48 -273.509 121.3 0.0983587 -0.995151 1 0.5 0 1
197 1 71.2541 59.5975 0 -8.01193 59.5975 0 299.8 52.5862 250.438 -33.9956 0.544268 -0.838912 1 0.5 0 1
198 1 74.5053 42.9348 0 74.5053 42.9348 0 -649.978 -352.991 245.996 -43.2538 0.0287011 0.999588 1 0.5 0 1
199 1 64.855 65.6905 0 -14.411 -13.5755 0 579.698 -436.119 -82.2762 96.4297 -0.638897 -0.769293 1 0.5 0 1
200 1 4.67895 76.3039 0 83.9449 76.3039 0 106.133 -221.916 69.4698 71.9301 0.694698 0.719301 1 0.5 0 1
201 1 16.8561 25.5283 0 16.8561 25.5283 0 517.546 199.739 25.9462 -10.4893 0.572627 0.819816 1 0.5 0 1
202 1 57.1737 56.7468 0 -22.0923 -22.5192 0 139.506 503.241 -102.458 -36.8945 0.32524 -0.945631 1 0.5 0 1
203 1 37.818 62.5066 0 -41.448 62.5066 0 -78.5985 1004.9 74.721 -10.7923 0.337753 0.941235 1 0.5 0 1
204 1 64.7178 61.7261 0 64.7178 -17.5399 0 465.451 789.926 -218.306 158.921 -0.134986 -0.990848 1 0.5 0 1
205 1 10.5269 61.2305 0 10.5269 61.2305 0 -597.625 293.324 95.9603 117.418 -0.906421 0.422376 1 0.5 0 1
206 1 1.97719 56.2425 0 1.97719 -23.0235 0 -971.077 387.272 32.7068 116.238 -0.176377 0.984323 1 0.5 0 1
207 1 40.0814 68.1535 0 40.0814 68.1535 0 30.9656 -438.565 -32.7693 38.1551 -0.120082 -0.992764 1 0.5 0 1
208 1 10.3851 29.479 0 10.3851 29.479 0 17.6906 -559.856 83.0815 208.621 -0.546031 -0.837765 1 0.5 0 1
209 1 54.6327 25.0656 0 54.6327 104.332 0 4.87392 69.1522 -9.71942 57.2595 -0.263949 0.964537 1 0.5 0 1
210 1 66.1375 60.3518 0 -13.1285 60.3518 0 -14.0547 -408.679 114.987 37.387 -0.865897 0.500222 1 0.5 0 1
211 1 61.8726 40.7387 0 61.8726 40.7387 0 407.689 366.295 -243.618 -293.682 0.952392 -0.304877 1 0.5 0 1
212 1 22.5576 4.4722 0 181.09 4.4722 0 398.61 -687.772 73.4962 67.8108 0.734962 0.678108 1 0.5 0 1
213 1 69.0058 63.5711 0 69.0058 63.5711 0 -52.008 334.728 -36.8327 -44.9419 0.141534 0.989933 1 0.5 0 1
214 1 60.968 20.1925 0 60.968 99.4585 0 106.918 734.053 65.9226 -77.6033 -0.498846 -0.86669 1 0.5 0 1
215 1 55.609 58.1777 0 55.609 -21.0883 0 176.395 562.914 124.796 -10.1194 0.616676 -0.787217 1 0.5 0 1
216 1 16.5133 42.2423 0 16.5133 121.508 0 -56.2167 552.6 52.6464 -42.6908 -0.170446 0.985367 1 0.5 0 1
217 1 20.9424 32.088 0 100.208 32.088 0 142.296 369.34 -85.9046 25.0033 0.31007 0.950714 1 0.5 0 1
218 1 46.649 47.5724 0 46.649 47.5724 0 385.458 -527.334 171.066 136.156 -0.602728 -0.797947 1 0.5 0 1
219 1 53.8035 42.5956 0 53.8035 42.5956 0 445.094 -156.5 -220.134 53.9122 -0.456277 -0.889838 1 0.5 0 1
220 1 34.5331 23.7855 0 34.5331 -55.4805 0 -296.623 527.041 -13.9424 -99.0233 -0.139424 -0.990233 1 0.5 0 1
221 1 22.1805 59.904 0 22.1805 139.17 0 539.676 934.579 -86.3835 47.636 -0.855883 0.51717 1 0.5 0 1
222 1 39.5231 63.5575 0 39.5231 -15.7085 0 980.844 546.935 -95.372 24.3072 -0.845197 0.534455 1 0.5 0 1
223 1 72.7204 35.3526 0 -6.54557 35.3526 0 -292.697 232.421 -74.7235 137.183 -0.76772 0.640785 1 0.5 0 1
224 1 75.5638 59.4721 0 -3.70217 59.4721 0 -125.827 92.202 -125.061 2.97167 0.223008 -0.974817 1 0.5 0 1
225 1 29.4489 57.3226 0 108.715 -21.9434 0 -7.77991 -541.447 -7.22571 -53.6629 0.227943 -0.973675 1 0.5 0 1
226 1 5.72726 68.1634 0 5.72726 -11.1026 0 697.073 -179.332 -23.511 18.6853 -0.997643 0.0686241 1 0.5 0 1
227 1 2.16185 34.6054 0 81.4279 34.6054 0 57.3907 -34.4286 21.8467 -1.92396 -0.920718 0.390229 1 0.5 0 1
228 1 12.72 25.4312 0 -66.546 25.4312 0 52.8511 234.267 15.2832 5.30108 -0.73871 -0.674023 1 0.5 0 1
229 1 52.8003 38.6805 0 52.8003 38.6805 0 -28.2526 322.017 135.796 -113.18 -0.00359155 -0.999994 1 0.5 0 1
230 1 53.2289 36.9943 0 53.2289 116.26 0 -20.5922 383.306 6.63319 36.1898 -0.739941 0.672672 1 0.5 0 1
231 1 24.4367 18.7689 0 24.4367 98.0349 0 -262.53 430.695 -75.7163 37.9348 -0.876709 0.481021 1 0.5 0 1
232 1 51.4902 28.6355 0 51.4902 -50.6305 0 -674.034 -140.152 13.7039 -87.2271 0.999765 -0.0216827 1 0.5 0 1
233 1 7.32073 43.0874 0 7.32073 43.0874 0 41.2309 270.088 -16.7814 -204.839 -0.768016 0.64043 1 0.5 0 1
234 1 16.4167 52.2793 0 16.4167 -26.9867 0 72.9931 152.153 155.669 55.2563 -0.801746 0.597665 1 0.5 0 1
235 1 34.9338 11.4063 0 34.9338 90.6723 0 161.68 -319.224 92.7003 41.9696 0.713348 0.70081 1 0.5 0 1
236 1 40.1149 44.4584 0 119.381 44.4584 0 -252.043 275.404 52.3958 -79.846 0.512491 -0.858693 1 0.5 0 1
237 1 60.8131 15.9035 0 60.8131 15.9035 0 682 77.2318 -12.5507 18.6625 0.884423 -0.466686 1 0.5 0 1
238 1 72.58 18.1887 0 72.58 97.4547 0 585.696 256.584 -67.9258 103.441 0.536807 0.843705 1 0.5 0 1
239 1 4.23808 39.8875 0 83.5041 39.8875 0 -552.311 -3.21486 -72.2956 86.7265 0.899241 0.437454 1 0.5 0 1
240 1 70.8219 13.1154 0 70.8219 13.1154 0 429.167 -0.0210234 -254.187 -44.1559 0.846647 0.532154 1 0.5 0 1
241 1 49.552 35.6009 0 49.552 35.6009 0 538.039 475.073 -78.3725 -57.4006 -0.585571 0.810621 1 0.5 0 1
242 1 1.69356 60.6697 0 80.9596 -18.5963 0 941.295 -225.485 -54.1775 4.88819 0.453461 -0.891276 1 0.5 0 1
243 1 33.5595 0.694472 0 -45.7065 79.9605 0 -373.186 42.6649 77.0828 -45.9757 -0.26528 -0.964171 1 0.5 0 1
244 1 61.1154 23.1508 0 61.1154 102.417 0 -133.351 -439.957 21.2635 -18.0225 0.99554 -0.094339 1 0.5 0 1
245 1 56.8186 49.1891 0 56.8186 49.1891 0 -462.412 -118.133 246.639 27.3745 0.116102 0.993237 1 0.5 0 1
246 1 50.4703 39.6592 0 50.4703 39.6592 0 -51.9479 362.301 -129.846 -16.7644 0.838642 -0.544683 1 0.5 0 1
247 1 67.7596 52.4358 0 67.7596 -26.8302 0 -377.196 127.76 -28.471 -52.2988 -0.670763 -0.741671 1 0.5 0 1
248 1 12.2119 27.7865 0 -67.0541 107.053 0 36.2807 260.651 2.24988 -38.2903 -0.835402 -0.549639 1 0.5 0 1
249 1 7.27413 18.9767 0 86.5401 18.9767 0 -1488.33 -868.342 -16.6347 -93.1758 -0.146814 -0.989164 1 0.5 0 1
250 1 45.7258 78.2355 0 124.992 78.2355 0 -185.954 80.0094 99.9927 -1.20613 0.999927 -0.0120613 1 0.5 0 1
251 1 14.7456 3.19939 0 14.7456 161.731 0 95.5603 412.311 -68.148 73.1837 -0.68148 0.731837 1 0.5 0 1
252 1 54.0616 14.4411 0 54.0616 93.7071 0 -821.903 106.716 82.5931 56.3772 0.825931 0.563772 1 0.5 0 1
253 1 29.3901 63.3623 0 29.3901 63.3623 0 637.91 52.1541 -31.4887 41.835 -0.693701 -0.720263 1 0.5 0 1
254 1 47.4738 33.9123 0 47.4738 113.178 0 -239.962 -72.1061 -87.1964 80.0172 0.0552031 0.998475 1 0.5 0 1
255 1 2.56642 31.9684 0 81.8324 111.234 0 -1099.66 14.321 265.704 221.956 -0.771201 -0.636592 1 0.5 0 1
256 1 69.6168 40.5334 0 -9.64919 40.5334 0 -509.752 -33.7729 -164.524 -171.908 0.941165 0.337947 1 0.5 0 1
257 1 9.13705 36.5576 0 9.13705 115.824 0 -162.184 564.44 -39.0528 40.5325 0.919518 -0.393047 1 0.5 0 1
258 1 8.57348 23.0876 0 8.57348 -56.1784 0 -816.273 -119.454 78.472 -34.4426 -0.99995 -0.0100336 1 0.5 0 1
259 1 74.5622 72.5102 0 74.5622 72.5102 0 -147.727 391.654 -57.0771 -1.5087 -0.999948 -0.0102161 1 0.5 0 1
260 1 65.0475 64.6638 0 144.314 -14.6022 0 101.601 -456.616 -23.1149 -57.3377 0.124563 -0.992212 1 0.5 0 1
261 1 34.2659 76.4184 0 -45.0001 -2.84755 0 -110.971 -531.639 53.3321 -12.0426 -0.397352 -0.917666 1 0.5 0 1
262 1 57.3429 57.8646 0 136.609 -21.4014 0 490.078 -210.182 137.02 0.249085 0.867111 0.498114 1 0.5 0 1
263 1 40.2027 42.3409 0 -39.0633 -36.9251 0 153.832 -1233.64 -144.747 -40.7348 0.324282 -0.945961 1 0.5 0 1
264 1 75.9521 5.67223 0 155.218 5.67223 0 579.024 521.607 79.9562 10.0211 0.988552 0.150884 1 0.5 0 1
265 1 54.8409 27.1017 0 54.8409 106.368 0 260.65 310.59 56.2435 -186.569 0.185337 0.982675 1 0.5 0 1
266 1 56.2436 50.762 0 56.2436 50.762 0 -103.547 -149.3 -88.3871 44.549 0.987192 -0.159539 1 0.5 0 1
267 1 72.4029 62.0108 0 -6.86312 -17.2552 0 -1035.36 292.537 -16.0476 65.426 -0.0933647 -0.995632 1 0.5 0 1
268 1 66.8018 58.6579 0 66.8018 58.6579 0 -136.744 -123.478 39.7243 -17.7002 0.524049 -0.851688 1 0.5 0 1
269 1 14.0775 47.1093 0 93.3435 47.1093 0 -354.769 164.11 28.6316 29.6632 -0.0951774 0.99546 1 0.5 0 1
270 1 39.581 54.8887 0 118.847 -24.3773 0 -131.362 113.994 -28.4806 36.7138 -0.477349 0.878714 1 0.5 0 1
271 1 63.387 17.4543 0 63.387 17.4543 0 -331.218 567.021 -45.6897 -147.505 0.658912 0.75222 1 0.5 0 1
272 1 52.3014 36.6398 0 52.3014 36.6398 0 235.985 47.5427 -87.47 4.633 -0.947589 -0.319492 1 0.5 0 1
273 1 60.283 48.4497 0 60.283 48.4497 0 613.349 217.832 -193.792 16.2965 0.957494 -0.288455 1 0.5 0 1
274 1 5.77587 11.4522 0 5.77587 11.4522 0 20.7761 8.7629 -37.7994 82.894 0.258345 0.966053 1 0.5 0 1
275 1 6.83922 59.3417 0 86.1052 -19.9243 0 50.9713 666.256 -61.9456 -160.331 -0.60487 0.796324 1 0.5 0 1
276 1 59.1712 43.5473 0 59.1712 43.5473 0 -1575.21 1.44507 -81.0242 84.035 0.824599 0.565718 1 0.5 0 1
277 1 3.59902 12.7713 0 -75.667 12.7713 0 -362.161 377.325 11.1042 32.0392 -0.69204 0.721859 1 0.5 0 1
278 1 10.5749 30.4632 0 -68.6911 109.729 0 107.413 -731.627 -35.9734 -79.8677 -0.776085 -0.630629 1 0.5 0 1
279 1 41.634 57.7404 0 120.9 -21.5256 0 -848.442 238.6 1.55362 -53.2749 -0.478031 -0.878343 1 0.5 0 1
280 1 3.90921 11.7252 0 3.90921 -67.5408 0 -247.395 -846.322 46.4191 16.7719 -0.96307 -0.269253 1 0.5 0 1
281 1 69.0045 54.7509 0 69.0045 54.7509 0 -481.732 -742.265 234.349 -8.45104 0.653621 -0.756822 1 0.5 0 1
282 1 48.2836 46.2484 0 48.2836 -33.0176 0 293.801 -526.397 126.079 -104.704 0.595852 -0.803095 1 0.5 0 1
283 1 70.355 29.1867 0 -8.91103 108.453 0 -203.402 411.676 77.3398 98.7444 0.681398 0.731913 1 0.5 0 1
284 1 8.01267 24.8873 0 8.01267 104.153 0 461.064 -344.614 -60.9887 34.0702 0.660494 0.750832 1 0.5 0 1
285 1 66.8614 32.5529 0 66.8614 32.5529 0 -152.07 -437.834 -158.736 -42.4045 0.806067 0.591824 1 0.5 0 1