ITEM: TIMESTEP
140000
ITEM: NUMBER OF ATOMS
4000
ITEM: BOX BOUNDS pp pp pp
0.0000000000000000e+00 7.9266000000000005e+01
0.0000000000000000e+00 7.9266000000000005e+01
-5.0000000000000000e-01 5.0000000000000000e-01
ITEM: ATOMS id type x y z xu yu zu vx vy fx fy mux muy mu radius omegaz mass
1 1 71.0349 2.44126 0 71.0349 81.7073 0 367.104 491.931 98.6941 16.1085 0.986941 0.161085 1 0.5 0 1
2 1 24.9401 59.224 0 24.9401 -20.042 0 565.433 534.305 -107.3 -175.027 0.479302 -0.87765 1 0.5 0 1
3 1 44.7295 52.8974 0 44.7295 -26.3686 0 253.009 -73.3039 -52.9779 -29.8272 -0.810663 -0.585512 1 0.5 0 1
4 1 54.0716 31.9394 0 54.0716 111.205 0 -346.556 484.438 153.558 -117.834 -0.906988 -0.421157 1 0.5 0 1
5 1 18.6267 23.0054 0 18.6267 23.0054 0 -209.726 -77.1475 -57.5434 36.5446 -0.936459 0.350776 1 0.5 0 1
6 1 1.21262 24.8734 0 1.21262 24.8734 0 -240.094 380.589 -99.9968 -0.800298 -0.999968 -0.00800298 1 0.5 0 1
7 1 69.7199 46.7284 0 69.7199 46.7284 0 252.78 331.726 -274.974 73.5972 -0.565735 0.824587 1 0.5 0 1
8 1 28.0495 68.8298 0 28.0495 -10.4362 0 229.954 -708.286 93.1164 -163.07 0.30997 -0.950746 1 0.5 0 1
9 1 61.2223 18.6536 0 61.2223 18.6536 0 -493.148 -250.146 -33.4615 66.9192 0.680543 -0.732708 1 0.5 0 1
10 1 43.3716 52.9591 0 43.3716 52.9591 0 205.003 -509.561 -151.949 78.62 -0.997189 -0.0749322 1 0.5 0 1
11 1 38.1006 48.3568 0 -41.1654 48.3568 0 -360.823 389.036 74.084 -51.7637 -0.420397 -0.90734 1 0.5 0 1
12 1 72.7301 70.606 0 72.7301 70.606 0 -677.515 138.931 71.276 60.2898 0.499976 0.866039 1 0.5 0 1
13 1 30.186 42.2292 0 30.186 42.2292 0 395.227 397.47 9.01312 17.6277 0.881005 -0.473108 1 0.5 0 1
14 1 39.5474 38.9367 0 -39.7186 38.9367 0 1.46287 -547.458 -75.578 -41.2682 -0.882407 -0.470487 1 0.5 0 1
15 1 29.2384 44.1204 0 29.2384 44.1204 0 -291.201 -6.21415 -66.6035 -111.113 -0.990569 0.137013 1 0.5 0 1
16 1 32.6344 79.1782 0 -46.6316 -0.0878491 0 -909.826 354.977 -98.4789 -17.3754 -0.984789 -0.173754 1 0.5 0 1
17 1 50.5919 70.8282 0 50.5919 70.8282 0 -114.35 227.072 -34.565 98.0108 0.838193 0.545373 1 0.5 0 1
18 1 18.5752 14.2918 0 18.5752 14.2918 0 -634.069 -128.561 2.08343 -142.938 -0.314352 0.949307 1 0.5 0 1
19 1 8.16302 38.524 0 8.16302 38.524 0 -174.453 -138.129 4.32365 -91.2841 -0.792719 -0.609587 1 0.5 0 1
20 1 30.2891 60.6952 0 30.2891 60.6952 0 -522.406 -347.382 28.8215 -51.6915 0.676414 0.736522 1 0.5 0 1
21 1 30.8437 10.877 0 30.8437 10.877 0 243.182 -585.903 -87.3873 28.7996 -0.919136 0.393941 1 0.5 0 1
22 1 62.0864 22.1753 0 62.0864 22.1753 0 256.892 -784.254 68.6102 141.694 0.998457 -0.0555236 1 0.5 0 1
23 1 61.3535 57.463 0 61.3535 -21.803 0 210.765 478.328 99.79 6.47719 0.9979 0.0647719 1 0.5 0 1
24 1 66.1664 54.1728 0 66.1664 -25.0932 0 -10.5039 586.283 74.6475 -33.5048 0.489138 -0.872206 1 0.5 0 1
25 1 46.4674 64.3021 0 -32.7986 -14.9639 0 -486.598 280.849 -94.8468 -31.6873 -0.948468 -0.316873 1 0.5 0 1
26 1 23.2805 42.2733 0 23.2805 -36.9927 0 165.378 -39.4 -97.2558 -100.512 0.770269 -0.637719 1 0.5 0 1
27 1 18.5135 54.4482 0 18.5135 54.4482 0 22.6518 671.35 6.14534 -47.1477 -0.673986 0.738744 1 0.5 0 1
28 1 15.459 69.1138 0 15.459 69.1138 0 330.909 644.764 36.6006 -29.8611 -0.323617 0.946188 1 0.5 0 1
29 1 78.545 36.9484 0 -0.720996 36.9484 0 -427.426 450.744 -49.6621 -105.901 -0.972289 -0.233783 1 0.5 0 1
30 1 52.0671 28.3793 0 52.0671 107.645 0 -52.9542 124.284 -26.9052 157.461 0.961331 0.275395 1 0.5 0 1
31 1 12.1237 26.8197 0 12.1237 26.8197 0 1421.51 485.86 -22.4095 29.4322 -0.659469 -0.751732 1 0.5 0 1
32 1 29.065 52.1811 0 29.065 52.1811 0 343.465 -289.842 -121.707 -35.5792 0.813909 -0.580993 1 0.5 0 1
33 1 53.3238 57.1689 0 53.3238 -22.0971 0 -263.021 -110.34 98.1233 -19.2826 0.981233 -0.192826 1 0.5 0 1
34 1 9.17721 42.2077 0 88.4432 42.2077 0 237.953 329.19 -23.4978 -191.628 -0.573726 0.819047 1 0.5 0 1
35 1 64.6285 61.2917 0 -14.6375 61.2917 0 -222.149 -718.709 -62.6575 23.4631 -0.980432 0.196856 1 0.5 0 1
36 1 52.969 61.4871 0 52.969 -17.7789 0 578.991 267.44 116.527 -37.0035 0.144345 -0.989527 1 0.5 0 1
37 1 73.6079 40.2596 0 73.6079 40.2596 0 -478.124 -355.536 -20.2166 -24.1431 0.861873 0.507124 1 0.5 0 1
38 1 24.5381 58.3096 0 103.804 58.3096 0 446.846 328.024 -11.1484 63.2529 0.585033 0.81101 1 0.5 0 1
39 1 35.471 54.7064 0 35.471 -24.5596 0 -264.427 -247.663 8.36328 -102.393 0.0596948 -0.998217 1 0.5 0 1
40 1 36.5987 10.0694 0 -42.6673 10.0694 0 -509.708 -13.0746 7.82314 -25.748 -0.873843 0.486209 1 0.5 0 1
41 1 70.7069 50.0485 0 70.7069 50.0485 0 118.423 315.569 144.108 -153.075 0.577527 -0.816372 1 0.5 0 1
42 1 74.0355 58.0983 0 -5.23049 58.0983 0 530.778 257.649 13.1834 -41.5297 -0.496101 -0.868265 1 0.5 0 1
43 1 63.5439 63.3583 0 -15.7221 63.3583 0 107.492 81.9424 -20.0112 50.113 -0.476586 0.879128 1 0.5 0 1
44 1 55.1753 12.3039 0 55.1753 91.5699 0 719.264 345.599 47.5344 -13.6931 0.122978 0.992409 1 0.5 0 1
45 1 35.3007 20.3563 0 35.3007 20.3563 0 788.049 84.2195 45.1899 -31.7866 0.975076 -0.221872 1 0.5 0 1
46 1 10.8291 39.0461 0 10.8291 39.0461 0 2.61985 -67.258 45.676 -133.41 -0.198618 0.980077 1 0.5 0 1
47 1 18.1274 71.3957 0 18.1274 -7.87034 0 191.888 -358.926 -141.889 212.771 0.998542 -0.0539815 1 0.5 0 1
48 1 38.2212 43.3701 0 38.2212 43.3701 0 204.167 -246.213 3.37921 -85.718 -0.734644 -0.678453 1 0.5 0 1
49 1 22.2437 17.7309 0 101.51 96.9969 0 246.788 741.581 -34.7468 18.3302 0.951276 0.308339 1 0.5 0 1
50 1 60.7624 28.6973 0 60.7624 28.6973 0 603.852 -75.5976 27.3393 -57.2614 -0.47554 0.879694 1 0.5 0 1
51 1 67.7197 17.886 0 -11.5463 17.886 0 -288.965 -325.985 -27.9213 -36.2635 -0.864665 0.502349 1 0.5 0 1
52 1 20.2376 8.48094 0 99.5036 8.48094 0 -313.789 -156.129 -167.331 74.33 -0.0901732 0.995926 1 0.5 0 1
53 1 33.9849 38.8558 0 33.9849 118.122 0 564.177 37.3697 53.9254 138.402 -0.448636 0.893715 1 0.5 0 1
54 1 55.5648 25.7276 0 55.5648 25.7276 0 434.641 -474.746 -55.8896 -194.852 -0.789197 -0.61414 1 0.5 0 1
55 1 18.3344 8.06991 0 97.6004 87.3359 0 -105.155 42.5199 81.5145 -1.92362 0.982696 -0.185225 1 0.5 0 1
56 1 34.2835 49.4569 0 34.2835 49.4569 0 -202.95 -64.6371 -28.6184 14.3516 -0.529288 0.848442 1 0.5 0 1
57 1 23.9404 75.5263 0 23.9404 75.5263 0 -609.974 -294.437 -73.9153 193.303 -0.987657 0.15663 1 0.5 0 1
58 1 74.2131 18.8629 0 -5.05291 18.8629 0 -168.923 19.0613 -94.554 61.8511 -0.924116 0.382112 1 0.5 0 1
59 1 63.6085 30.034 0 63.6085 30.034 0 -343.406 33.8266 164.993 40.1494 -0.259207 0.965822 1 0.5 0 1
60 1 60.1689 36.6671 0 60.1689 36.6671 0 -51.5596 -778.519 70.9152 -22.1928 0.648841 0.760924 1 0.5 0 1
61 1 62.2692 40.4683 0 62.2692 40.4683 0 -730.641 614.309 -12.2152 -390.354 0.449067 0.893498 1 0.5 0 1
62 1 64.6119 75.6745 0 64.6119 -3.59149 0 -614.262 180.844 -105.796 -68.1978 0.84111 -0.540864 1 0.5 0 1
63 1 44.804 40.0875 0 -34.462 40.0875 0 -80.6811 350.951 140.042 -121.879 -0.0123191 -0.999924 1 0.5 0 1
64 1 66.0216 71.879 0 66.0216 71.879 0 -220.456 111.887 16.7446 170.071 0.190146 0.981756 1 0.5 0 1
65 1 2.71096 10.5873 0 81.977 89.8533 0 577.162 -204.605 87.2534 -13.175 0.870924 0.491417 1 0.5 0 1
66 1 2.2891 6.12148 0 81.5551 85.3875 0 -569.858 599.433 95.4688 29.7607 0.954688 0.297607 1 0.5 0 1
67 1 57.6919 38.3943 0 57.6919 38.3943 0 128.681 -50.7247 -167.632 -60.245 0.999605 0.0281072 1 0.5 0 1
68 1 39.4907 64.7935 0 39.4907 64.7935 0 -338.472 546.452 -97.9099 -20.3383 -0.979099 -0.203383 1 0.5 0 1
69 1 27.2866 62.1101 0 27.2866 62.1101 0 -491.192 194.72 -241.347 -25.6733 -0.775451 -0.631408 1 0.5 0 1
70 1 43.0174 34.7792 0 43.0174 114.045 0 146.504 10.2193 67.2104 74.0457 0.672104 0.740457 1 0.5 0 1
71 1 18.5225 24.5516 0 18.5225 24.5516 0 597.242 605.234 20.7374 -45.5041 -0.243289 -0.969954 1 0.5 0 1
72 1 2.01075 57.2239 0 2.01075 57.2239 0 -355.688 210.938 74.9707 24.7871 0.865274 -0.501299 1 0.5 0 1
73 1 55.537 76.6896 0 55.537 -2.57643 0 585.302 95.7724 31.5724 4.10012 -0.812647 0.582756 1 0.5 0 1
74 1 73.6056 69.9241 0 73.6056 69.9241 0 154.905 -122.057 -54.105 48.2713 0.985472 0.169837 1 0.5 0 1
75 1 0.915458 35.8197 0 0.915458 35.8197 0 206.207 173.383 44.9477 -3.42819 -0.954542 -0.298078 1 0.5 0 1
76 1 64.3512 28.5114 0 -14.9148 28.5114 0 277.531 539.894 -73.763 -76.8959 -0.889752 0.456445 1 0.5 0 1
77 1 3.38217 32.1971 0 3.38217 32.1971 0 305.896 315.74 -67.6235 -35.774 0.101724 0.994813 1 0.5 0 1
78 1 19.5626 54.4096 0 19.5626 54.4096 0 68.2832 -196.448 6.1177 -112.384 -0.602906 0.797812 1 0.5 0 1
79 1 23.7443 78.6908 0 23.7443 78.6908 0 340.115 478.109 -25.1752 -87.3663 -0.746254 0.665661 1 0.5 0 1
80 1 14.0013 24.8687 0 14.0013 -54.3973 0 -236.209 -195.386 -91.104 -25.2273 -0.940388 -0.340103 1 0.5 0 1
81 1 47.8313 36.6643 0 127.097 36.6643 0 -637.396 303.202 49.2882 21.4668 0.981563 -0.191138 1 0.5 0 1
82 1 5.40163 37.1406 0 5.40163 37.1406 0 -512.368 -306.37 -62.5639 -50.9368 -0.460559 0.887629 1 0.5 0 1
83 1 57.047 64.0042 0 57.047 64.0042 0 -386.438 316.482 60.4352 76.0557 0.841397 0.540418 1 0.5 0 1
84 1 0.599791 43.324 0 0.599791 43.324 0 -587.802 493.39 8.52419 168.517 -0.124886 -0.992171 1 0.5 0 1
85 1 26.4181 63.6505 0 26.4181 -15.6155 0 -164.072 -11.3412 -124.252 -69.8395 0.501447 -0.865188 1 0.5 0 1
86 1 5.95102 7.49638 0 5.95102 7.49638 0 9.17952 -792.875 62.6141 84.2527 0.363691 0.93152 1 0.5 0 1
87 1 35.4498 49.7437 0 35.4498 49.7437 0 -749.815 369.704 -39.9306 -103.519 -0.999779 0.0210156 1 0.5 0 1
88 1 44.5817 39.0808 0 44.5817 39.0808 0 60.2781 1001.56 -6.19154 23.9667 -0.987153 0.159781 1 0.5 0 1
89 1 21.3279 66.8256 0 21.3279 66.8256 0 1540.29 57.9415 -276.653 -31.2757 0.929368 0.369155 1 0.5 0 1
90 1 8.95298 34.9182 0 8.95298 34.9182 0 16.2122 -33.2853 -19.4902 -35.5184 -0.456135 -0.889911 1 0.5 0 1
91 1 18.6713 55.7197 0 18.6713 -23.5463 0 377.897 406.581 -42.8698 45.9807 0.966983 0.254842 1 0.5 0 1
92 1 4.11993 53.3917 0 4.11993 53.3917 0 -600.199 -951.086 -55.5292 195.711 -0.885264 0.465089 1 0.5 0 1
93 1 4.86617 43.6877 0 4.86617 43.6877 0 -43.9597 178.223 206.938 -80.9971 -0.953919 -0.300064 1 0.5 0 1
94 1 74.9069 34.1659 0 74.9069 34.1659 0 -285.259 236.472 10.4167 -182.766 0.999717 0.0238093 1 0.5 0 1
95 1 69.662 45.7867 0 69.662 45.7867 0 209.965 719.478 113.627 -214.55 0.90947 0.415769 1 0.5 0 1
96 1 57.5622 37.426 0 57.5622 37.426 0 -331.398 135.933 -38.5258 12.5084 0.743324 0.668932 1 0.5 0 1
97 1 61.6285 28.1732 0 61.6285 28.1732 0 413.069 -218.745 -108.663 42.3347 -0.709754 -0.704449 1 0.5 0 1
98 1 15.4141 17.0874 0 15.4141 96.3534 0 450.949 403.027 57.8437 -1.73994 0.912886 0.408214 1 0.5 0 1
99 1 40.5109 7.72214 0 40.5109 7.72214 0 -160.074 378.386 96.452 -104.046 0.331995 -0.943281 1 0.5 0 1
100 1 76.2932 41.5692 0 76.2932 41.5692 0 245.512 146.261 -12.8343 43.5211 0.44889 -0.893587 1 0.5 0 1
101 1 45.4711 0.730884 0 45.4711 0.730884 0 434.132 92.3019 -34.7437 -93.7703 -0.347437 -0.937703 1 0.5 0 1
102 1 2.99668 40.7492 0 2.99668 40.7492 0 767.129 253.182 -90.6454 -208.249 -0.86316 0.504931 1 0.5 0 1
103 1 6.69365 67.1951 0 6.69365 67.1951 0 -363.255 -357.728 -71.6716 69.7365 -0.716716 0.697365 1 0.5 0 1
104 1 56.8442 38.9496 0 56.8442 118.216 0 261.714 159.098 -3.83326 21.608 0.910165 0.414247 1 0.5 0 1
105 1 52.0036 48.3906 0 -27.2624 -30.8754 0 -85.8276 -69.4996 14.2588 -33.6222 -0.995985 0.0895247 1 0.5 0 1
106 1 14.6777 34.9695 0 14.6777 34.9695 0 912.682 -875.405 -54.734 -67.7356 -0.659518 -0.751688 1 0.5 0 1
107 1 67.6502 32.7157 0 67.6502 32.7157 0 -13.8371 -203.58 150.025 -172.908 -0.999424 -0.0339287 1 0.5 0 1
108 1 4.38071 34.6364 0 4.38071 113.902 0 311.446 -438.072 95.0637 129.804 -0.080579 0.996748 1 0.5 0 1
109 1 62.6309 67.5994 0 -16.6351 67.5994 0 -609.836 -170.349 -132.891 -13.0163 -0.999611 -0.0278735 1 0.5 0 1
110 1 22.4045 38.6557 0 22.4045 38.6557 0 -609.701 306.521 72.666 -66.7274 0.984721 0.174142 1 0.5 0 1
111 1 34.7104 23.5614 0 34.7104 23.5614 0 1039.32 -474.43 -6.4924 87.0542 0.982099 -0.188367 1 0.5 0 1
112 1 12.8639 46.2547 0 12.8639 46.2547 0 -28.6873 -81.253 93.5163 40.1823 -0.581994 0.813193 1 0.5 0 1
113 1 37.4414 21.0659 0 -41.8246 21.0659 0 450.201 -15.9314 14.3671 -80.6609 0.368019 0.929818 1 0.5 0 1
114 1 29.2328 51.1725 0 29.2328 51.1725 0 578.169 -395.212 119.311 -34.3942 0.756972 -0.653448 1 0.5 0 1
115 1 64.5911 78.1672 0 -14.6749 -1.09877 0 402.613 227.62 -47.9299 -46.7471 -0.552359 0.833606 1 0.5 0 1
116 1 26.2227 70.7678 0 26.2227 -8.4982 0 140.045 -898.401 122.739 -117.186 0.261585 -0.965181 1 0.5 0 1
117 1 55.0478 64.861 0 55.0478 64.861 0 -293.953 350.634 -116.211 -50.7015 -0.966296 -0.257434 1 0.5 0 1
118 1 58.4104 36.8394 0 58.4104 36.8394 0 972.29 259.695 -86.4729 20.3292 0.61164 -0.791136 1 0.5 0 1
119 1 39.9168 24.0619 0 39.9168 24.0619 0 -15.8305 207.937 88.6608 -46.2521 0.886608 -0.462521 1 0.5 0 1
120 1 12.6392 20.5179 0 91.9052 20.5179 0 369.424 -684.988 32.6821 -62.8507 0.995934 0.0900845 1 0.5 0 1
121 1 28.1232 23.1421 0 -51.1428 23.1421 0 -249.172 -73.4544 -65.5354 -27.9157 -0.802101 -0.597188 1 0.5 0 1
122 1 36.88 76.6644 0 36.88 76.6644 0 -483.277 -74.4946 19.4273 58.6787 0.129198 0.991619 1 0.5 0 1
123 1 0.53665 28.6203 0 0.53665 28.6203 0 161.269 375.34 -4.04616 -41.958 -0.127086 0.991892 1 0.5 0 1
124 1 43.7653 39.8818 0 43.7653 39.8818 0 276.444 -203.859 6.38658 120.605 0.272622 0.962121 1 0.5 0 1
125 1 61.3998 21.4057 0 61.3998 21.4057 0 264.641 -459.114 -38.0488 -12.5122 0.955547 0.294839 1 0.5 0 1
126 1 7.54653 5.63275 0 86.8125 84.8987 0 29.6296 80.8709 -20.7806 -23.8222 0.490919 0.871205 1 0.5 0 1
127 1 64.1341 25.4734 0 64.1341 104.739 0 -704.043 601.52 29.6904 -40.8959 0.402069 0.915609 1 0.5 0 1
128 1 26.6365 42.7095 0 -52.6295 42.7095 0 593.622 258.07 -133.858 18.3397 -0.992214 0.124544 1 0.5 0 1
129 1 67.9614 54.3314 0 67.9614 -24.9346 0 863.411 7.69668 115.158 -175.072 0.581293 -0.813694 1 0.5 0 1
130 1 74.1834 53.999 0 74.1834 -25.267 0 -654.758 -523.676 -169.066 48.9458 0.331082 -0.943602 1 0.5 0 1
131 1 68.5839 71.8226 0 -10.6821 71.8226 0 140.711 -374.584 -64.3881 93.5434 -0.999454 0.0330269 1 0.5 0 1
132 1 69.4268 23.6144 0 -9.83918 102.88 0 42.9647 -122.604 -21.1402 -4.92035 -0.605277 0.796015 1 0.5 0 1
133 1 62.5384 28.636 0 62.5384 107.902 0 -64.1691 107.489 267.196 177.158 -0.32853 0.944493 1 0.5 0 1
134 1 33.4346 65.0825 0 33.4346 65.0825 0 622.323 -341.956 -106.316 81.0861 -0.921452 -0.388493 1 0.5 0 1
135 1 47.5245 16.9554 0 47.5245 96.2214 0 219.452 807.499 14.0627 77.4588 -0.253774 0.967264 1 0.5 0 1
136 1 44.7673 37.7386 0 44.7673 117.005 0 -516.005 828.059 17.5357 103.58 -0.633896 0.773419 1 0.5 0 1
137 1 33.145 43.4542 0 112.411 43.4542 0 423.744 -499.081 -14.2757 175.913 0.24774 0.968827 1 0.5 0 1
138 1 31.86 9.89837 0 31.86 9.89837 0 406.956 -239.305 -59.8452 -80.1158 -0.598452 -0.801158 1 0.5 0 1
139 1 34.3852 62.3671 0 34.3852 -16.8989 0 289.883 -163.576 3.53542 -76.9431 -0.998696 -0.0510549 1 0.5 0 1
140 1 23.5041 77.3651 0 23.5041 -1.90089 0 83.3299 739.306 56.1868 -76.3516 -0.762667 -0.646791 1 0.5 0 1
141 1 11.9644 51.0908 0 11.9644 51.0908 0 -224.213 396.318 43.5107 -3.88744 -0.96593 0.258805 1 0.5 0 1
142 1 21.0641 59.6645 0 21.0641 59.6645 0 315.023 245.424 166.213 -24.4472 -0.888479 0.458918 1 0.5 0 1
143 1 20.8487 28.7984 0 20.8487 108.064 0 8.66218 -400.433 -20.5269 97.8706 -0.205269 0.978706 1 0.5 0 1
144 1 56.7795 56.1414 0 56.7795 -23.1246 0 -1007.64 -1010.85 11.2336 -99.367 0.112336 -0.99367 1 0.5 0 1
145 1 62.3586 10.9261 0 62.3586 90.1921 0 26.0051 288.359 -136.545 71.4063 -0.111768 0.993734 1 0.5 0 1
146 1 22.2447 75.9885 0 22.2447 -3.27753 0 -278.058 -39.4563 51.2 78.5064 -0.353842 -0.935305 1 0.5 0 1
147 1 71.4111 78.4236 0 71.4111 -0.842364 0 -602.669 658.63 -80.1539 -76.4894 0.126043 -0.992025 1 0.5 0 1
148 1 16.6725 12.1177 0 95.9385 12.1177 0 -435.198 -846.708 8.56757 -64.9476 0.994639 -0.103403 1 0.5 0 1
149 1 77.1115 28.4147 0 77.1115 107.681 0 81.6081 -545.407 -92.6591 -101.401 0.223249 0.974761 1 0.5 0 1
150 1 72.1029 32.8772 0 -7.16312 32.8772 0 -194.741 626.689 -19.1157 48.732 -0.9152 0.402999 1 0.5 0 1
151 1 2.62559 55.6052 0 81.8916 -23.6608 0 -142.295 -177.479 159.94 -49.2926 -0.186172 -0.982517 1 0.5 0 1
152 1 28.8682 41.652 0 28.8682 120.918 0 884.316 -155.694 23.9873 0.32099 0.806531 0.591191 1 0.5 0 1
153 1 75.8655 58.0827 0 75.8655 58.0827 0 -426.6 -787.136 -110.147 36.0548 0.723802 -0.690008 1 0.5 0 1
154 1 5.02905 47.74 0 5.02905 47.74 0 40.6457 33.5341 -71.8695 1.28086 0.5007 -0.865621 1 0.5 0 1
155 1 22.9444 12.4841 0 -56.3216 12.4841 0 312.187 140.031 55.4441 -12.6314 -0.998028 -0.0627663 1 0.5 0 1
156 1 76.571 46.4664 0 76.571 46.4664 0 -165.23 308.109 29.6377 -14.3819 -0.598479 0.801139 1 0.5 0 1
157 1 66.734 18.1406 0 -12.532 18.1406 0 -152.898 -304.551 77.2778 146.803 0.348457 0.937325 1 0.5 0 1
158 1 71.5715 36.4088 0 -7.69453 36.4088 0 238.766 661.812 101.416 201.235 -0.877422 0.479719 1 0.5 0 1
159 1 70.6259 13.98 0 70.6259 93.246 0 -385.834 -292.651 -32.505 53.8242 -0.99888 0.0473214 1 0.5 0 1
160 1 24.3477 73.7688 0 24.3477 -5.49721 0 1114.31 -7.31453 -261.06 135.491 -0.97793 -0.208933 1 0.5 0 1
161 1 2.73862 72.7438 0 2.73862 -6.52218 0 -77.4887 -19.5334 42.4804 -24.2912 0.502304 -0.864691 1 0.5 0 1
162 1 7.60294 49.3259 0 7.60294 49.3259 0 988.607 -294.881 -71.838 60.8022 -0.983361 -0.181661 1 0.5 0 1
163 1 66.117 45.0727 0 66.117 45.0727 0 -721.392 -262.502 85.889 -52.806 0.753009 -0.65801 1 0.5 0 1
164 1 31.043 47.3288 0 31.043 47.3288 0 -340.784 -307.177 -22.7631 67.4118 0.509196 -0.860651 1 0.5 0 1
165 1 48.9345 69.9457 0 48.9345 -9.32027 0 30.8998 -368.556 19.4488 14.758 -0.0677782 -0.9977 1 0.5 0 1
166 1 13.6727 42.041 0 13.6727 42.041 0 338.489 -21.0617 232.304 -104.738 -0.937081 -0.349112 1 0.5 0 1
167 1 59.9298 21.2812 0 59.9298 21.2812 0 438.244 124.697 79.2419 -11.3604 0.761528 -0.648132 1 0.5 0 1
168 1 23.8557 9.9514 0 23.8557 89.2174 0 506.434 315.293 -6.4977 14.4516 -0.857159 0.515051 1 0.5 0 1
169 1 30.6724 25.389 0 30.6724 104.655 0 486.763 -318.86 21.0664 56.3702 -0.0573219 0.998356 1 0.5 0 1
170 1 68.6925 79.2561 0 68.6925 79.2561 0 322.014 50.46 50.0629 86.5662 0.500629 0.865662 1 0.5 0 1
171 1 9.37531 28.5803 0 88.6413 28.5803 0 -922.714 -689.518 51.7238 -32.4173 0.811425 -0.584457 1 0.5 0 1
172 1 9.32366 52.5459 0 9.32366 -26.7201 0 18.479 -43.9575 -30.1101 -51.0325 -0.990994 0.133904 1 0.5 0 1
173 1 50.4548 0.875423 0 50.4548 0.875423 0 -121.751 3.92472 -64.3422 -76.5512 -0.643422 -0.765512 1 0.5 0 1
174 1 10.1917 49.9715 0 10.1917 49.9715 0 350.897 35.1305 -52.575 -16.8589 -0.929528 0.368751 1 0.5 0 1
175 1 25.1358 9.82378 0 25.1358 9.82378 0 393.3 -101.51 -6.61301 66.5864 -0.204539 0.978858 1 0.5 0 1
176 1 12.0017 47.8413 0 12.0017 47.8413 0 448.651 -325.594 173.219 53.8153 -0.657972 -0.753043 1 0.5 0 1
177 1 25.6585 11.1889 0 25.6585 90.4549 0 757.5 20.5139 50.9628 -1.58641 -0.0297839 0.999556 1 0.5 0 1
178 1 59.2767 23.2678 0 -19.9893 102.534 0 407.353 278.127 -199.453 -41.0059 -0.727888 0.685696 1 0.5 0 1
179 1 5.00276 53.8462 0 5.00276 -25.4198 0 959.17 656.86 -94.8948 323.376 -0.956165 -0.29283 1 0.5 0 1
180 1 77.8371 39.4895 0 77.8371 39.4895 0 395.054 508.841 168.931 -70.3797 -0.477439 0.878665 1 0.5 0 1
181 1 53.4996 27.4435 0 53.4996 27.4435 0 -311.813 -948.346 -10.994 -34.5513 -0.827494 -0.561475 1 0.5 0 1
182 1 15.4449 28.4725 0 15.4449 107.738 0 -62.8694 181.143 29.538 -38.3146 -0.888392 -0.459085 1 0.5 0 1
183 1 58.3378 50.4362 0 58.3378 -28.8298 0 234.642 -742.477 36.8167 36.4 0.945526 -0.325547 1 0.5 0 1
184 1 67.4013 39.1114 0 67.4013 39.1114 0 -201.037 63.8023 53.2387 -49.0089 -0.269839 0.962905 1 0.5 0 1
185 1 22.3868 35.0627 0 22.3868 35.0627 0 -391.108 -297.546 -99.9943 -1.06381 -0.999943 -0.0106381 1 0.5 0 1
186 1 24.7737 57.3355 0 24.7737 57.3355 0 406.385 538.014 88.7673 10.9725 -0.545657 0.838009 1 0.5 0 1
187 1 66.2617 29.3607 0 -13.0043 108.627 0 -214.87 292.86 -62.4403 28.1382 -0.423455 0.905917 1 0.5 0 1
188 1 12.0807 61.7356 0 91.3467 61.7356 0 443.216 -576.028 53.6059 -74.0006 0.990059 0.140651 1 0.5 0 1
189 1 20.3211 13.2884 0 20.3211 13.2884 0 77.7941 -112.897 -95.0179 -25.8748 0.896268 0.443514 1 0.5 0 1
190 1 69.3951 77.0941 0 -9.87087 77.0941 0 49.7834 735.923 -11.2612 16.7453 -0.99965 0.0264399 1 0.5 0 1
191 1 33.7762 6.15054 0 113.042 6.15054 0 -275.767 -40.3613 84.4246 53.5956 0.844246 0.535956 1 0.5 0 1
192 1 65.2231 34.3347 0 65.2231 34.3347 0 -45.9355 90.1189 188.5 -240.752 0.275111 -0.961412 1 0.5 0 1
193 1 59.6203 1.82162 0 -19.6457 1.82162 0 366.753 -372.345 -131.161 1.28203 -0.993004 -0.118084 1 0.5 0 1
194 1 32.398 68.6884 0 32.398 68.6884 0 -158.22 93.5446 31.5545 -92.0102 -0.743712 -0.6685 1 0.5 0 1
195 1 55.3167 23.9824 0 55.3167 23.9824 0 388.851 696.368 -21.2343 -45.3946 -0.0758877 0.997116 1 0.5 0 1
196 1 62.8598 36.9484 0 62.8598 36.9484 0 -450.626 211.242 22.0698 29.276 -0.267288 -0.963617 1 0.5 0 1
197 1 71.2442 59.7336 0 -8.02181 59.7336 0 -19.4648 -720.346 -35.7713 33.3591 -0.158867 -0.9873 1 0.5 0 1
198 1 77.2621 42.9593 0 77.2621 42.9593 0 -403.246 382.011 -66.1317 167.487 -0.997828 -0.065877 1 0.5 0 1
199 1 70.794 11.7308 0 -8.47205 11.7308 0 560.165 -65.9345 12.6168 -92.2872 0.143487 -0.989652 1 0.5 0 1
200 1 20.9111 68.5956 0 20.9111 68.5956 0 -477.918 -445.325 215.799 166.504 0.77886 0.627198 1 0.5 0 1
201 1 9.24951 54.551 0 9.24951 -24.715 0 233.21 -479.995 163.962 105.491 -0.617078 0.786902 1 0.5 0 1
202 1 58.7098 70.7609 0 -20.5562 -8.5051 0 -431.718 -621.366 32.4063 -81.8684 0.342596 -0.939483 1 0.5 0 1
203 1 73.9111 1.63962 0 -5.35487 80.9056 0 -108.218 -529.101 -62.9428 1.43265 -0.930874 -0.36534 1 0.5 0 1
204 1 31.1032 15.3969 0 31.1032 15.3969 0 241.34 180.339 8.98017 -37.57 0.887641 -0.460536 1 0.5 0 1
205 1 32.1371 60.265 0 32.1371 60.265 0 -442.885 -174.269 -3.74298 3.40986 -0.99554 0.0943355 1 0.5 0 1
206 1 0.940416 56.6327 0 0.940416 -22.6333 0 593.011 131.766 300.187 -154.186 0.230407 -0.973094 1 0.5 0 1
207 1 14.472 66.2037 0 14.472 66.2037 0 401.808 207.236 25.4598 100.087 0.672814 0.739812 1 0.5 0 1
208 1 37.4164 51.8183 0 37.4164 51.8183 0 -556.196 0.853919 -52.5145 -74.4862 -0.513353 -0.858178 1 0.5 0 1
209 1 38.9131 61.464 0 38.9131 61.464 0 -72.1718 -339.861 25.4827 4.63285 0.0717588 0.997422 1 0.5 0 1
210 1 75.8722 69.2078 0 -3.39384 69.2078 0 -304.758 76.0402 -81.8895 -57.3944 -0.818895 -0.573944 1 0.5 0 1
211 1 64.7491 38.7867 0 64.7491 38.7867 0 150.724 -238.149 -18.5086 173.347 0.755957 0.654621 1 0.5 0 1
212 1 32.1786 75.3143 0 111.445 -3.95169 0 -301.046 637.853 14.6038 4.4321 0.824829 -0.565382 1 0.5 0 1
213 1 59.2293 59.925 0 59.2293 59.925 0 577.607 391.887 80.0235 59.9686 0.800235 0.599686 1 0.5 0 1
214 1 57.6601 22.7325 0 57.6601 101.998 0 415.056 608.115 -170.938 115.179 0.85737 -0.5147 1 0.5 0 1
215 1 19.1067 71.6476 0 19.1067 -7.61839 0 -46.0616 627.373 -39.3499 131.778 0.706988 0.707226 1 0.5 0 1
216 1 29.6967 40.2968 0 29.6967 119.563 0 -274.939 -590.024 11.4422 -3.59595 -0.64963 0.76025 1 0.5 0 1
217 1 50.7686 77.066 0 50.7686 -2.19995 0 -264.787 -18.9038 99.9293 -3.76076 0.999293 -0.0376076 1 0.5 0 1
218 1 43.135 46.4154 0 43.135 46.4154 0 96.382 -499.458 37.6239 74.1602 0.888531 0.458817 1 0.5 0 1
219 1 56.065 40.3639 0 56.065 40.3639 0 726.459 773.354 38.4072 37.5281 0.613942 -0.789351 1 0.5 0 1
220 1 58.8773 69.6692 0 58.8773 -9.59675 0 -507.997 -373.556 -81.6635 -67.0795 -0.835168 -0.549995 1 0.5 0 1
221 1 40.8041 1.59176 0 40.8041 80.8578 0 -370.142 -166.805 34.8783 16.9273 0.567425 0.823425 1 0.5 0 1
222 1 30.0377 47.5482 0 30.0377 -31.7178 0 849.142 69.4459 -36.0398 -37.381 0.575027 -0.818134 1 0.5 0 1
223 1 76.6941 35.0498 0 -2.5719 35.0498 0 -97.4427 -161.288 29.9112 80.7075 -0.588732 0.808328 1 0.5 0 1
224 1 73.9232 61.4605 0 -5.34284 61.4605 0 -77.7732 -258.58 23.6016 -17.1387 0.995309 0.0967431 1 0.5 0 1
225 1 22.5132 55.2222 0 101.779 -24.0438 0 -296.215 412.178 5.43942 -0.0220745 0.89227 0.451502 1 0.5 0 1
226 1 30.2549 72.8108 0 30.2549 -6.45522 0 -600.342 851.725 8.1031 -74.8261 -0.083035 -0.996547 1 0.5 0 1
227 1 5.22925 33.0293 0 84.4953 33.0293 0 280.121 -83.2348 -15.522 -27.9766 0.417738 0.908567 1 0.5 0 1
228 1 65.4695 67.8983 0 -13.7965 67.8983 0 -82.9339 -993.103 -52.9929 38.8507 -0.999987 0.00519171 1 0.5 0 1
229 1 57.2711 34.5023 0 57.2711 34.5023 0 -393.247 -228.494 33.7823 119.068 0.514486 0.857499 1 0.5 0 1
230 1 57.9299 32.989 0 57.9299 112.255 0 -1203.47 442.192 -42.1892 49.2534 -0.281387 0.959594 1 0.5 0 1
231 1 66.9808 73.8257 0 66.9808 73.8257 0 175.319 -303.12 38.7683 71.2112 0.776552 0.630053 1 0.5 0 1
232 1 52.7115 36.2458 0 52.7115 -43.0202 0 -354.092 -881.428 34.7867 -43.8034 0.469753 -0.882798 1 0.5 0 1
233 1 10.0709 42.6562 0 10.0709 42.6562 0 -325.204 -734.306 111.083 -78.0127 -0.809964 -0.58648 1 0.5 0 1
234 1 29.0445 62.1867 0 29.0445 -17.0793 0 -398.382 417.292 130.65 16.5454 -0.193974 0.981007 1 0.5 0 1
235 1 22.9299 63.6906 0 22.9299 63.6906 0 27.3124 -502.407 -135.467 -151.622 0.299975 0.953947 1 0.5 0 1
236 1 14.2084 74.1322 0 93.4744 74.1322 0 -597.08 -7.666 63.772 -40.5182 0.999999 0.00139183 1 0.5 0 1
237 1 54.016 26.5941 0 54.016 26.5941 0 -69.1107 -22.8239 -78.4006 -252.078 0.956301 -0.292385 1 0.5 0 1
238 1 55.3312 74.5002 0 55.3312 74.5002 0 -309.67 -343.709 58.2297 16.9004 0.857035 0.515258 1 0.5 0 1
239 1 7.3494 39.118 0 86.6154 39.118 0 -188.624 -601.008 -162.912 -135.869 0.556496 0.83085 1 0.5 0 1
240 1 33.4698 30.9919 0 33.4698 30.9919 0 -191.729 193.479 96.1 -27.6549 0.961 -0.276549 1 0.5 0 1
241 1 49.7247 39.7029 0 49.7247 39.7029 0 875.524 -121.335 -30.5759 -36.8142 0.166067 -0.986115 1 0.5 0 1
242 1 76.1265 67.2222 0 76.1265 -12.0438 0 286.952 666.676 77.3856 -63.3362 0.773856 -0.633362 1 0.5 0 1
243 1 69.6624 75.0031 0 -9.6036 75.0031 0 366.902 101.755 -21.9397 40.5059 -0.547616 0.83673 1 0.5 0 1
244 1 43.897 59.0199 0 43.897 59.0199 0 689.223 -442.056 4.79723 -8.44504 0.598003 0.801494 1 0.5 0 1
245 1 58.0952 45.3022 0 58.0952 45.3022 0 93.1042 -395.572 -26.2068 100.057 -0.22261 -0.974908 1 0.5 0 1
246 1 52.093 38.2876 0 52.093 38.2876 0 -692.357 553.675 73.3985 -11.4237 0.943803 -0.330509 1 0.5 0 1
247 1 68.9933 51.0521 0 68.9933 -28.2139 0 382.227 -839.807 258.596 -88.9292 -0.987433 0.158036 1 0.5 0 1
248 1 51.0564 21.842 0 -28.2096 101.108 0 -288.662 400.603 -20.342 74.5944 0.0205838 0.999788 1 0.5 0 1
249 1 64.8219 18.7652 0 64.8219 18.7652 0 597.445 -238.489 137.616 -57.3767 0.801789 0.597608 1 0.5 0 1
250 1 15.0133 62.0351 0 94.2793 62.0351 0 -376.124 118.482 26.5728 -29.8735 0.911261 0.41183 1 0.5 0 1
251 1 42.2979 47.5561 0 42.2979 126.822 0 60.1016 -368.42 -58.0703 81.4115 -0.580703 0.814115 1 0.5 0 1
252 1 22.0416 65.2273 0 22.0416 65.2273 0 -280.456 772.056 45.0451 -51.4147 0.284061 0.958806 1 0.5 0 1
253 1 26.5081 57.9035 0 26.5081 57.9035 0 74.1907 -463.528 -27.956 10.5178 0.501162 0.865353 1 0.5 0 1
254 1 45.2927 17.1423 0 45.2927 96.4083 0 71.1368 27.497 -29.8477 95.4417 -0.298477 0.954417 1 0.5 0 1
255 1 5.67627 30.0402 0 84.9423 109.306 0 -255.72 21.4211 -72.911 57.9911 -0.571649 0.820498 1 0.5 0 1
256 1 72.6991 39.8011 0 -6.56685 39.8011 0 90.9921 -595.309 21.4374 56.409 0.195216 -0.98076 1 0.5 0 1
257 1 13.095 31.4652 0 13.095 110.731 0 389.261 -38.1928 -13.4358 50.6343 -0.493241 0.869893 1 0.5 0 1
258 1 41.9496 57.9807 0 41.9496 -21.2853 0 -2.84471 257.239 85.4492 -89.6357 -0.346736 -0.937963 1 0.5 0 1
259 1 17.9741 32.7261 0 97.2401 32.7261 0 -212.304 128.395 19.2572 65.6534 -0.00111065 0.999999 1 0.5 0 1
260 1 19.8865 24.1727 0 99.1525 24.1727 0 -315.071 -112.674 -48.5157 -83.8354 0.508089 -0.861305 1 0.5 0 1
261 1 4.07878 79.0242 0 4.07878 -0.241806 0 -156.499 -697.88 -95.8 -28.6768 -0.958 -0.286768 1 0.5 0 1
262 1 67.3056 77.3625 0 146.572 -1.90353 0 804.591 -198.018 77.1151 -63.6652 0.771151 -0.636652 1 0.5 0 1
263 1 41.6565 73.6616 0 -37.6095 -5.60436 0 190.701 734.36 -99.9179 -4.05198 -0.999179 -0.0405198 1 0.5 0 1
264 1 25.2396 29.091 0 104.506 29.091 0 -14.5708 -94.671 94.4493 -40.4005 0.947547 -0.319615 1 0.5 0 1
265 1 28.5233 8.95232 0 28.5233 88.2183 0 -581.241 109.082 -20.0613 8.21018 0.651818 0.758375 1 0.5 0 1
266 1 59.1321 48.763 0 59.1321 48.763 0 1027.8 674.048 -64.9594 7.67735 0.934604 -0.35569 1 0.5 0 1
267 1 5.87451 75.0122 0 5.87451 -4.25377 0 -347.3 -1106.34 -76.0018 -64.9902 -0.760018 -0.649902 1 0.5 0 1
268 1 68.4931 60.0856 0 68.4931 60.0856 0 222.493 -615.211 -64.0646 -18.1779 0.361349 -0.932431 1 0.5 0 1
269 1 54.3908 18.5676 0 133.657 18.5676 0 729.239 386.705 45.5274 18.5621 -0.272258 0.962224 1 0.5 0 1
270 1 43.8458 72.166 0 123.112 -7.10002 0 921.65 380.739 77.1488 -63.6244 0.771488 -0.636244 1 0.5 0 1
271 1 51.4681 27.508 0 51.4681 27.508 0 138.518 137.253 -13.9567 -55.3079 0.838953 -0.544205 1 0.5 0 1
272 1 56.3658 34.04 0 56.3658 34.04 0 623.935 217.165 -274.696 -89.8138 0.953456 -0.301533 1 0.5 0 1
273 1 61.7233 45.8951 0 61.7233 45.8951 0 171.141 382.417 20.5058 63.1637 0.19571 -0.980662 1 0.5 0 1
274 1 24.1884 55.6702 0 24.1884 -23.5958 0 140.885 513.799 -101.964 -33.725 -0.949832 -0.312759 1 0.5 0 1
275 1 2.2429 1.09979 0 81.5089 1.09979 0 125.027 -574.596 83.0056 -55.7679 0.830056 -0.557679 1 0.5 0 1
276 1 61.4502 40.9986 0 61.4502 40.9986 0 62.4985 774.933 -48.3821 -150.825 0.998036 0.0626399 1 0.5 0 1
277 1 45.4107 31.5322 0 -33.8553 31.5322 0 -84.5992 -126.176 -51.3424 -75.927 -0.632113 -0.774876 1 0.5 0 1
278 1 67.7019 11.2338 0 -11.5641 90.4998 0 -690.99 -1296.19 -5.50565 33.604 -0.981721 0.190323 1 0.5 0 1
279 1 19.2227 27.6577 0 98.4887 27.6577 0 381.685 484.147 60.2027 -79.8475 0.602027 -0.798475 1 0.5 0 1
280 1 57.7681 66.4555 0 57.7681 -12.8105 0 -312.283 582.594 32.0169 102.794 -0.573717 -0.819054 1 0.5 0 1
281 1 68.9159 53.9148 0 68.9159 53.9148 0 1053.87 -32.6442 -251.763 183.04 0.407344 -0.913275 1 0.5 0 1
282 1 42.9723 51.7668 0 42.9723 -27.4992 0 151.22 409.857 7.66762 -99.282 0.587016 -0.809575 1 0.5 0 1
283 1 74.3527 28.0862 0 -4.91334 107.352 0 249.738 -659.904 42.5271 180.537 0.980063 0.198687 1 0.5 0 1
284 1 65.7753 18.4558 0 -13.4907 97.7218 0 -183.898 -456.4 -1.45035 23.2395 0.559632 0.828741 1 0.5 0 1
285 1 71.1296 31.4672 0 71.1296 31.4672 0 -13.7087 -43.174 -140.08 143.556 0.913884 0.405974 1 0.5 0 1