ITEM: TIMESTEP
20000
ITEM: NUMBER OF ATOMS
4000
ITEM: BOX BOUNDS pp pp pp
0.0000000000000000e+00 7.9266000000000005e+01
0.0000000000000000e+00 7.9266000000000005e+01
-5.0000000000000000e-01 5.0000000000000000e-01
ITEM: ATOMS id type x y z xu yu zu vx vy fx fy mux muy mu radius omegaz mass
1 1 37.5703 50.2264 0 37.5703 50.2264 0 -354.318 272.168 12.9296 -8.52794 0.90332 0.428967 1 0.5 0 1
2 1 37.6648 19.7547 0 37.6648 19.7547 0 347.33 331.118 22.4637 -62.0866 -0.241898 -0.970302 1 0.5 0 1
3 1 42.6383 32.0684 0 42.6383 32.0684 0 28.2053 -114.966 -13.8554 71.9306 -0.993075 -0.117478 1 0.5 0 1
4 1 62.56 76.422 0 62.56 76.422 0 155.106 423.036 -4.35556 38.7298 -0.518593 0.855021 1 0.5 0 1
5 1 54.5202 47.8949 0 54.5202 47.8949 0 -789.911 226.458 -61.7017 -85.8243 -0.464917 -0.885354 1 0.5 0 1
6 1 57.4954 25.8157 0 57.4954 25.8157 0 575.819 511.711 25.9118 -25.1289 -0.392789 -0.919629 1 0.5 0 1
7 1 53.2659 38.4189 0 53.2659 38.4189 0 99.8651 113.251 95.8543 28.4947 0.958543 0.284947 1 0.5 0 1
8 1 36.4335 21.1891 0 36.4335 21.1891 0 594.528 313.571 -89.9086 58.4912 -0.487777 -0.872968 1 0.5 0 1
9 1 30.1153 37.6556 0 30.1153 37.6556 0 62.96 265.287 -38.8162 56.8759 0.769881 -0.638187 1 0.5 0 1
10 1 56.8018 71.9383 0 56.8018 71.9383 0 439.106 0.0957968 158.952 -89.419 0.70195 -0.712226 1 0.5 0 1
11 1 14.9619 53.0041 0 14.9619 53.0041 0 91.1576 -1149.16 -97.2736 -18.1812 -0.991202 -0.132355 1 0.5 0 1
12 1 56.3757 48.5565 0 56.3757 48.5565 0 -103.32 961.74 -98.1139 73.9609 -0.148743 0.988876 1 0.5 0 1
13 1 32.4943 67.6023 0 32.4943 67.6023 0 435.004 875.388 -31.9274 -52.5716 -0.361871 -0.932228 1 0.5 0 1
14 1 75.2629 62.9563 0 -4.00313 62.9563 0 -573.016 369.525 84.9599 -3.75156 -0.639423 -0.768855 1 0.5 0 1
15 1 63.3147 52.2523 0 63.3147 52.2523 0 98.6512 2.8402 -98.9726 14.2979 -0.989726 0.142979 1 0.5 0 1
16 1 4.43924 13.8998 0 4.43924 13.8998 0 20.6138 196.742 -99.4442 -10.5285 -0.994442 -0.105285 1 0.5 0 1
17 1 51.4979 34.0076 0 51.4979 34.0076 0 -564.862 541.785 -96.1794 8.14407 -0.805146 0.593077 1 0.5 0 1
18 1 44.4217 42.8071 0 44.4217 42.8071 0 -1003.63 473.667 -51.2443 -149.831 -0.981619 -0.19085 1 0.5 0 1
19 1 28.9349 62.1719 0 28.9349 62.1719 0 -99.4725 464.982 10.2563 -103.262 -0.479827 -0.877363 1 0.5 0 1
20 1 15.7008 39.5301 0 15.7008 39.5301 0 -169.163 467.175 45.6815 63.344 0.111579 0.993756 1 0.5 0 1
21 1 57.2045 76.4872 0 57.2045 -2.77879 0 112.678 -679.016 41.4542 41.6015 0.27731 -0.960781 1 0.5 0 1
22 1 30.2262 33.8017 0 30.2262 33.8017 0 123.123 -271.727 16.4033 -93.1016 0.998342 0.0575528 1 0.5 0 1
23 1 39.0088 29.1238 0 39.0088 29.1238 0 160.187 -731.43 -72.3197 9.24264 -0.626868 -0.779126 1 0.5 0 1
24 1 52.8823 78.0675 0 52.8823 -1.19851 0 -603.754 468.414 12.6455 -137.79 0.690458 -0.723373 1 0.5 0 1
25 1 18.9232 2.618 0 18.9232 2.618 0 -63.1412 -640.4 -38.8199 -0.806397 -0.991383 -0.130996 1 0.5 0 1
26 1 31.3587 7.37725 0 31.3587 7.37725 0 58.0816 469.438 -5.74851 -58.1573 0.426243 -0.904609 1 0.5 0 1
27 1 50.0615 11.0274 0 50.0615 11.0274 0 1045.47 320.213 42.1778 38.7506 0.999375 -0.035351 1 0.5 0 1
28 1 33.3003 30.5246 0 33.3003 30.5246 0 -456.003 567.241 -16.0695 4.54577 0.486957 0.873426 1 0.5 0 1
29 1 1.52489 14.8209 0 1.52489 14.8209 0 -67.9246 551.133 -50.3338 86.409 -0.503338 0.86409 1 0.5 0 1
30 1 42.3269 5.70137 0 42.3269 84.9674 0 -470.67 -981.829 -95.579 13.029 0.47548 0.879726 1 0.5 0 1
31 1 26.246 63.6184 0 26.246 63.6184 0 292.209 -530.995 -42.1968 -33.9286 0.679211 -0.733943 1 0.5 0 1
32 1 26.0184 17.6532 0 26.0184 17.6532 0 219.547 223.485 36.774 92.9929 0.36774 0.929929 1 0.5 0 1
33 1 33.3207 74.6327 0 33.3207 -4.6333 0 -461.367 193.415 -3.18557 -33.5703 0.474214 -0.88041 1 0.5 0 1
34 1 69.803 37.3577 0 69.803 37.3577 0 -397.018 407.327 -6.1958 -71.6829 0.38184 -0.924228 1 0.5 0 1
35 1 40.8135 75.2256 0 40.8135 75.2256 0 -348.218 646.188 -7.05167 30.4721 -0.563787 0.82592 1 0.5 0 1
36 1 36.9681 44.8322 0 36.9681 44.8322 0 -528.367 -364.105 16.0425 -127.558 0.0579874 -0.998317 1 0.5 0 1
37 1 58.9152 35.0076 0 58.9152 35.0076 0 563.483 145.984 121.747 -38.6493 0.968554 -0.248805 1 0.5 0 1
38 1 10.8436 26.1051 0 90.1096 26.1051 0 543.228 169.235 94.1291 38.3543 0.973648 -0.228056 1 0.5 0 1
39 1 24.5469 24.4933 0 24.5469 24.4933 0 -158.071 -78.7476 2.66688 -43.2928 -0.291708 -0.956507 1 0.5 0 1
40 1 2.51751 4.40019 0 2.51751 4.40019 0 -448.022 -40.8161 -40.2008 -44.0738 -0.606019 -0.79545 1 0.5 0 1
41 1 55.2483 73.6723 0 55.2483 73.6723 0 376.758 -61.072 -38.7755 15.9125 0.746548 -0.665332 1 0.5 0 1
42 1 29.3833 70.986 0 29.3833 70.986 0 244.163 -38.2987 0.483918 -1.01355 -0.880598 -0.473864 1 0.5 0 1
43 1 19.1353 56.4935 0 19.1353 56.4935 0 126.998 267.249 -42.859 73.6141 -0.592488 0.805579 1 0.5 0 1
44 1 73.6124 71.5276 0 73.6124 71.5276 0 -15.0977 160.139 -4.86295 52.5059 -0.76017 0.649724 1 0.5 0 1
45 1 27.3176 67.232 0 27.3176 67.232 0 435.326 -222.421 -61.8337 22.8144 -0.994661 -0.103193 1 0.5 0 1
46 1 40.2694 16.5094 0 40.2694 16.5094 0 716.538 -62.9288 -94.7487 33.4124 -0.966899 0.255161 1 0.5 0 1
47 1 11.9812 17.8459 0 11.9812 17.8459 0 -185.476 -168.677 -120.555 -83.1264 0.0697014 -0.997568 1 0.5 0 1
48 1 67.7099 55.2023 0 67.7099 55.2023 0 -32.844 578.974 24.7986 14.6743 -0.96712 -0.254321 1 0.5 0 1
49 1 61.7057 74.8717 0 61.7057 74.8717 0 454.486 -56.6102 -77.3043 8.1911 0.299753 0.954017 1 0.5 0 1
50 1 63.0686 32.4528 0 63.0686 32.4528 0 283.962 -713.975 89.9121 -146.19 0.97309 0.230427 1 0.5 0 1
51 1 24.2201 16.4698 0 24.2201 16.4698 0 -117.271 715.319 -47.3009 -107.601 -0.826344 0.563166 1 0.5 0 1
52 1 64.0059 13.9034 0 64.0059 13.9034 0 706.781 655.909 48.0942 33.1982 0.643362 0.765562 1 0.5 0 1
53 1 46.6935 53.3002 0 46.6935 53.3002 0 -215.79 -1015.86 43.8415 89.8773 0.438415 0.898773 1 0.5 0 1
54 1 29.1062 37.4435 0 29.1062 37.4435 0 -771.766 -295.682 -31.8438 4.50686 0.926082 -0.377322 1 0.5 0 1
55 1 74.3184 76.9228 0 74.3184 76.9228 0 -104.279 -397.609 -28.5939 -11.9881 0.258823 0.965925 1 0.5 0 1
56 1 33.5936 67.5586 0 33.5936 67.5586 0 379.259 36.517 -22.2405 -58.1092 0.0577684 -0.99833 1 0.5 0 1
57 1 13.6027 61.7501 0 13.6027 61.7501 0 -828.821 -818.647 66.8628 34.891 0.735902 0.677088 1 0.5 0 1
58 1 32.6903 11.5849 0 32.6903 11.5849 0 55.2116 -57.2763 -87.875 4.43032 -0.984413 -0.175874 1 0.5 0 1
59 1 44.4337 4.30724 0 44.4337 4.30724 0 223.541 -291.072 54.2785 -41.3672 0.894963 0.44614 1 0.5 0 1
60 1 63.2565 45.2427 0 63.2565 45.2427 0 -602.522 -139.905 -7.67244 18.4314 0.0355878 -0.999367 1 0.5 0 1
61 1 55.6735 53.1662 0 55.6735 53.1662 0 497.175 -386.142 -72.2822 -24.118 0.219685 -0.975571 1 0.5 0 1
62 1 42.8444 46.5512 0 42.8444 46.5512 0 -249.198 641.513 58.1589 -58.5604 0.491435 -0.870914 1 0.5 0 1
63 1 75.6264 67.4215 0 -3.63961 67.4215 0 -741.132 1086.23 -97.8755 -20.5035 -0.978755 -0.205035 1 0.5 0 1
64 1 48.8002 32.7545 0 48.8002 32.7545 0 587.059 -87.1029 29.1351 -11.5243 0.89301 0.450036 1 0.5 0 1
65 1 62.2638 44.9918 0 62.2638 44.9918 0 -121.708 561.322 -51.7798 16.3475 0.888233 0.459392 1 0.5 0 1
66 1 36.1801 72.3846 0 36.1801 72.3846 0 203.191 -1479.39 69.123 -52.021 0.93298 -0.359928 1 0.5 0 1
67 1 24.6424 15.4749 0 24.6424 15.4749 0 271.904 339.824 -166.063 -39.1992 0.284728 0.958608 1 0.5 0 1
68 1 16.6876 28.7164 0 16.6876 28.7164 0 -598.371 -175.94 -46.7084 85.6564 -0.245497 0.969397 1 0.5 0 1
69 1 56.2255 73.8716 0 56.2255 73.8716 0 832.974 -356.925 -23.8742 -134.828 -0.672665 0.739947 1 0.5 0 1
70 1 26.7256 55.7089 0 26.7256 55.7089 0 -878.898 148.07 -75.191 -39.6148 0.016612 0.999862 1 0.5 0 1
71 1 55.5633 47.6114 0 55.5633 47.6114 0 -226.733 -422.795 -85.4625 203.194 -0.967582 0.252558 1 0.5 0 1
72 1 24.9652 54.5055 0 24.9652 54.5055 0 -409.1 -86.2461 72.8354 -13.1494 -0.898637 0.438692 1 0.5 0 1
73 1 70.3694 40.5705 0 70.3694 40.5705 0 -353.691 202.588 64.7846 43.7596 -0.0222213 -0.999753 1 0.5 0 1
74 1 54.4971 68.5111 0 54.4971 68.5111 0 -969.133 -335.284 4.32229 21.6145 0.89079 0.454416 1 0.5 0 1
75 1 12.9638 39.4184 0 12.9638 39.4184 0 -305.93 -70.8359 -1.33002 11.5454 -0.99866 -0.0517468 1 0.5 0 1
76 1 31.5207 19.5154 0 31.5207 19.5154 0 367.233 167.316 -87.8951 47.6912 -0.878951 0.476912 1 0.5 0 1
77 1 12.5883 11.9382 0 12.5883 11.9382 0 -97.8647 251.803 -40.143 8.48264 -0.949367 0.314168 1 0.5 0 1
78 1 46.3054 49.9909 0 46.3054 49.9909 0 121.719 -167.512 93.1399 -4.00251 -0.622788 -0.78239 1 0.5 0 1
79 1 59.7329 74.8386 0 59.7329 74.8386 0 -150.692 -221.951 -74.5652 -12.6457 -0.806855 0.59075 1 0.5 0 1
80 1 38.5015 73.5447 0 38.5015 -5.72129 0 485.563 61.8526 50.1385 -19.3612 -0.00435712 -0.999991 1 0.5 0 1
81 1 1.75623 26.4054 0 81.0222 26.4054 0 -206.228 -68.4335 57.7816 168.721 0.982653 0.185453 1 0.5 0 1
82 1 21.4766 13.5973 0 21.4766 13.5973 0 657.624 403.03 15.0135 -10.6802 0.470715 0.882285 1 0.5 0 1
83 1 41.155 28.8354 0 41.155 28.8354 0 176.873 -348.07 -92.4367 5.27776 -0.979549 0.201205 1 0.5 0 1
84 1 5.93761 35.7131 0 5.93761 35.7131 0 560.441 -338.394 -34.9539 -7.34518 -0.479496 0.877544 1 0.5 0 1
85 1 47.2081 15.2024 0 47.2081 15.2024 0 340.525 190.675 -94.9458 -24.3537 -0.912286 -0.409553 1 0.5 0 1
86 1 44.932 21.0537 0 44.932 21.0537 0 423.892 712.333 11.0866 -75.9999 -0.348203 -0.937419 1 0.5 0 1
87 1 49.3519 28.9023 0 49.3519 28.9023 0 -590.816 411.515 -56.9355 81.172 -0.292942 0.95613 1 0.5 0 1
88 1 61.3213 14.8816 0 61.3213 14.8816 0 -919.152 3.19313 1.68092 52.5605 0.42669 0.904398 1 0.5 0 1
89 1 23.5789 43.5167 0 23.5789 43.5167 0 345.625 310.737 -18.438 -13.1515 0.386065 0.922472 1 0.5 0 1
90 1 23.7977 60.5888 0 23.7977 60.5888 0 28.8905 45.3112 -72.1796 112.208 0.15387 -0.988091 1 0.5 0 1
91 1 16.19 7.53358 0 16.19 7.53358 0 96.6154 843.391 27.5312 17.093 0.339321 -0.940671 1 0.5 0 1
92 1 46.5867 45.3795 0 46.5867 45.3795 0 328.713 -305.687 -1.02505 -26.6935 -0.863016 -0.505177 1 0.5 0 1
93 1 14.9835 38.6926 0 14.9835 38.6926 0 298.917 519.777 -27.7083 87.8613 -0.188466 0.98208 1 0.5 0 1
94 1 71.6564 10.0492 0 71.6564 10.0492 0 -371.173 -18.1399 -13.0567 118.627 0.0701028 0.99754 1 0.5 0 1
95 1 56.1708 44.6026 0 56.1708 44.6026 0 -239.415 253.272 109.921 -89.5356 0.992363 0.123356 1 0.5 0 1
96 1 44.4972 37.075 0 44.4972 37.075 0 -705.352 325.068 103.284 -32.0265 0.472786 -0.881177 1 0.5 0 1
97 1 65.9658 35.3263 0 65.9658 35.3263 0 498.682 -918.613 48.9367 -80.4774 -0.59939 -0.800457 1 0.5 0 1
98 1 4.20133 71.3922 0 4.20133 71.3922 0 -832.603 355.332 -43.4574 28.6012 -0.892787 0.45048 1 0.5 0 1
99 1 75.3068 21.9521 0 75.3068 21.9521 0 275.185 -500.363 -4.85274 1.03031 -0.99993 -0.0118051 1 0.5 0 1
100 1 66.3986 30.7304 0 66.3986 30.7304 0 1230.57 -86.2698 -21.6922 25.6054 0.797322 0.603554 1 0.5 0 1
101 1 40.0347 59.2515 0 40.0347 59.2515 0 -452.492 -392.788 -22.5612 105.13 0.592908 -0.80527 1 0.5 0 1
102 1 24.7301 29.7142 0 24.7301 29.7142 0 -605.112 -562.086 -100.029 87.5096 -0.661873 0.749616 1 0.5 0 1
103 1 42.9062 48.446 0 42.9062 48.446 0 -209.21 -371.041 -90.0871 163.143 -0.567737 0.82321 1 0.5 0 1
104 1 33.3875 5.07947 0 33.3875 84.3455 0 28.0255 59.1945 17.7216 23.0204 0.527509 0.849549 1 0.5 0 1
105 1 8.99906 10.253 0 8.99906 10.253 0 -70.578 290.794 -122.632 110.21 -0.781805 -0.623523 1 0.5 0 1
106 1 56.2969 45.6683 0 56.2969 45.6683 0 -249.092 -843.844 129.831 135.759 -0.97973 0.200322 1 0.5 0 1
107 1 62.3496 18.7232 0 62.3496 18.7232 0 773.645 242.793 -11.2411 -20.3281 -0.709834 0.704369 1 0.5 0 1
108 1 13.1144 76.7137 0 13.1144 76.7137 0 -638.379 -434.769 40.9166 91.246 0.409166 0.91246 1 0.5 0 1
109 1 20.4444 46.5447 0 20.4444 46.5447 0 -251.204 19.8105 30.0938 51.7727 -0.999097 0.0424919 1 0.5 0 1
110 1 9.64507 36.9647 0 9.64507 36.9647 0 -633.502 -154.469 -18.2935 38.5485 -0.93539 0.353619 1 0.5 0 1
111 1 14.6392 30.6961 0 14.6392 30.6961 0 -142.149 17.1068 -57.0923 -95.9588 -0.752625 -0.65845 1 0.5 0 1
112 1 37.8756 62.1898 0 37.8756 62.1898 0 875.488 411.27 49.4061 9.67536 0.543846 -0.839185 1 0.5 0 1
113 1 69.8114 2.15785 0 -9.45461 2.15785 0 -564.652 -885.606 -68.3716 -26.3255 -0.647407 -0.762145 1 0.5 0 1
114 1 33.3734 31.5304 0 33.3734 31.5304 0 -486.741 183.337 -34.4932 26.2437 -0.876477 -0.481443 1 0.5 0 1
115 1 19.6711 14.9709 0 19.6711 14.9709 0 -918.561 -694.518 -66.6376 -74.5616 -0.666376 -0.745616 1 0.5 0 1
116 1 27.6687 30.4749 0 27.6687 30.4749 0 -303.387 -113.673 49.1031 -12.5882 0.0360203 -0.999351 1 0.5 0 1
117 1 58.4404 45.2897 0 58.4404 45.2897 0 452.127 -219.436 7.01218 17.1721 0.411364 -0.911471 1 0.5 0 1
118 1 50.2459 63.7288 0 50.2459 63.7288 0 226.233 178.878 66.1054 -15.8493 0.824112 -0.566427 1 0.5 0 1
119 1 13.2573 16.6284 0 13.2573 16.6284 0 -976.831 -85.6747 180.02 23.8854 -0.970208 -0.242275 1 0.5 0 1
120 1 59.7428 18.8729 0 59.7428 18.8729 0 689.89 607.01 83.1163 -1.81291 0.93107 0.364841 1 0.5 0 1
121 1 7.88516 35.9106 0 7.88516 35.9106 0 -72.8813 -300.334 -127.449 47.3561 -0.96901 0.247023 1 0.5 0 1
122 1 61.1753 44.9018 0 61.1753 44.9018 0 856.697 -116.939 142.525 -41.5534 -0.953956 0.299948 1 0.5 0 1
123 1 35.0192 31.3734 0 35.0192 31.3734 0 261.99 -311.342 -143.01 8.34887 -0.0303353 0.99954 1 0.5 0 1
124 1 31.2149 4.34278 0 31.2149 4.34278 0 -77.6321 -564.297 76.6498 -32.9532 0.904884 0.425658 1 0.5 0 1
125 1 20.0711 32.2015 0 20.0711 32.2015 0 94.9838 -399.064 53.2512 36.1935 0.861144 0.508361 1 0.5 0 1
126 1 60.5726 66.5818 0 60.5726 66.5818 0 61.5824 190.136 -70.5534 13.2035 -0.936347 -0.351077 1 0.5 0 1
127 1 56.0342 62.017 0 56.0342 62.017 0 -568.569 35.5424 -114.35 -14.9674 0.41401 0.910272 1 0.5 0 1
128 1 79.1287 63.4213 0 -0.137303 63.4213 0 -505.294 179.53 155.782 22.0719 -0.513011 -0.858382 1 0.5 0 1
129 1 35.4099 17.6635 0 35.4099 17.6635 0 325.022 -263.921 88.3192 -46.9011 0.883192 -0.469011 1 0.5 0 1
130 1 54.403 0.288504 0 54.403 0.288504 0 301.608 -380.311 -62.9251 -26.3986 -0.305684 -0.952133 1 0.5 0 1
131 1 26.8166 54.335 0 26.8166 54.335 0 -1475.47 220.779 17.6412 -24.4462 -0.956163 0.292834 1 0.5 0 1
132 1 45.0213 1.82756 0 45.0213 81.0936 0 252.692 569.234 -104.591 -66.0839 -0.949701 0.313159 1 0.5 0 1
133 1 66.5078 73.73 0 66.5078 73.73 0 -103.824 -187.058 -59.6132 50.1198 0.38004 0.92497 1 0.5 0 1
134 1 75.3582 52.8932 0 75.3582 52.8932 0 4.25274 -165.509 -151.535 73.1932 0.124045 0.992277 1 0.5 0 1
135 1 72.999 70.6864 0 72.999 70.6864 0 -695.769 -234.412 -85.9193 14.6475 -0.291859 0.956461 1 0.5 0 1
136 1 3.52767 56.0779 0 3.52767 56.0779 0 689.588 -659.535 39.0301 92.0687 0.390301 0.920687 1 0.5 0 1
137 1 0.899498 24.8308 0 80.1655 24.8308 0 -172.394 540.583 -10.5644 71.1535 0.561515 0.827466 1 0.5 0 1
138 1 61.7524 27.2179 0 61.7524 27.2179 0 187.403 -11.3233 -68.2964 73.0452 -0.682964 0.730452 1 0.5 0 1
139 1 65.5345 6.58329 0 65.5345 6.58329 0 221.378 116.188 -33.0386 111.864 -0.80634 -0.591452 1 0.5 0 1
140 1 26.0049 33.2978 0 26.0049 33.2978 0 11.4434 507.016 -29.6459 -118.777 -0.38307 -0.923719 1 0.5 0 1
141 1 55.8363 35.5322 0 55.8363 35.5322 0 10.9434 119.315 -94.7597 73.0601 -0.900239 0.435397 1 0.5 0 1
142 1 29.945 38.8622 0 29.945 38.8622 0 335.96 104.224 13.7496 41.0069 0.811948 0.58373 1 0.5 0 1
143 1 20.1589 56.8164 0 20.1589 56.8164 0 -153.581 551.613 -13.9626 7.63827 0.567873 0.823116 1 0.5 0 1
144 1 60.2597 25.377 0 60.2597 25.377 0 -100.931 552.924 6.92713 95.7519 0.935036 -0.354552 1 0.5 0 1
145 1 71.9691 52.4342 0 71.9691 52.4342 0 -64.3111 -1260.19 42.9518 33.2749 0.519582 0.854421 1 0.5 0 1
146 1 43.3526 23.1522 0 43.3526 23.1522 0 501.457 295.757 58.7562 -75.6935 -0.98373 -0.179651 1 0.5 0 1
147 1 74.3532 45.3927 0 74.3532 45.3927 0 344.095 -150.737 24.5612 -93.2496 0.663391 -0.748273 1 0.5 0 1
148 1 73.84 36.5269 0 73.84 36.5269 0 75.4462 367.017 -51.7907 66.1864 -0.703765 -0.710433 1 0.5 0 1
149 1 54.6006 2.58313 0 54.6006 81.8491 0 -364.007 -271.899 12.473 98.216 0.0928415 0.995681 1 0.5 0 1
150 1 15.3511 16.1791 0 15.3511 16.1791 0 1182.51 377.505 -20.7819 -30.8527 -0.736398 0.676549 1 0.5 0 1
151 1 51.487 11.237 0 51.487 11.237 0 637.851 -423.896 60.448 62.2203 0.821701 -0.569918 1 0.5 0 1
152 1 6.51106 4.68292 0 6.51106 83.9489 0 20.0033 -513.286 -55.5055 21.4325 -0.601319 0.799009 1 0.5 0 1
153 1 48.5162 58.7415 0 48.5162 58.7415 0 949.044 57.378 54.2461 -18.0834 0.806716 0.59094 1 0.5 0 1
154 1 76.7926 66.7746 0 -2.4734 66.7746 0 163.632 -492.663 4.70854 -15.8041 -0.539578 -0.841936 1 0.5 0 1
155 1 8.62351 6.38979 0 8.62351 6.38979 0 -684.769 1293.11 -76.9199 -38.3313 -0.620449 -0.784247 1 0.5 0 1
156 1 72.4948 41.5679 0 72.4948 41.5679 0 212.155 110.942 -36.8081 -10.7722 0.195579 0.980688 1 0.5 0 1
157 1 11.0134 19.8023 0 11.0134 19.8023 0 381.69 255.073 -3.35615 11.9629 -0.713526 -0.700629 1 0.5 0 1
158 1 16.6911 33.9051 0 16.6911 33.9051 0 -161.743 337.506 -72.3195 -9.10456 -0.999988 -0.00498443 1 0.5 0 1
159 1 72.3996 58.5154 0 72.3996 58.5154 0 279.51 -399.527 147.373 -34.7973 0.945102 0.326777 1 0.5 0 1
160 1 15.1455 51.4769 0 15.1455 51.4769 0 128.132 -85.3294 48.0876 -87.6789 0.480876 -0.876789 1 0.5 0 1
161 1 12.8764 25.0657 0 12.8764 25.0657 0 -30.8986 -657.991 -31.4916 52.2033 -0.661788 0.749691 1 0.5 0 1
162 1 21.7458 69.1463 0 21.7458 69.1463 0 262.127 433.054 -43.1247 -27.4753 -0.791418 -0.611275 1 0.5 0 1
163 1 45.1956 54.5233 0 45.1956 54.5233 0 310.96 -384.656 31.7629 -54.5162 0.923456 -0.383704 1 0.5 0 1
164 1 24.4842 69.3808 0 24.4842 69.3808 0 -278.412 -402.041 -16.7744 3.49544 0.353772 -0.935332 1 0.5 0 1
165 1 44.7945 49.249 0 44.7945 49.249 0 851.196 -355.304 -89.9421 61.6436 -0.105277 -0.994443 1 0.5 0 1
166 1 67.6672 16.6486 0 67.6672 16.6486 0 510.885 -127.662 -2.24611 14.8953 -0.967563 -0.252631 1 0.5 0 1
167 1 23.3832 24.4955 0 23.3832 24.4955 0 -722.737 149.642 -1.34591 164.786 -0.171412 0.985199 1 0.5 0 1
168 1 47.4409 55.2117 0 47.4409 55.2117 0 189.218 -818.136 -0.998071 50.0889 0.878074 0.478525 1 0.5 0 1
169 1 47.4827 47.0887 0 47.4827 47.0887 0 -216.201 -142.128 -63.9456 -15.7482 -0.893539 0.448985 1 0.5 0 1
170 1 70.992 51.9333 0 70.992 51.9333 0 -117.021 -162.297 42.121 65.7019 0.603347 0.797479 1 0.5 0 1
171 1 73.3883 62.4249 0 73.3883 62.4249 0 327.324 -256.023 7.68367 -61.4192 0.647498 -0.762067 1 0.5 0 1
172 1 53.4176 78.991 0 53.4176 -0.274986 0 -181.494 615.062 -59.1339 39.4824 -0.903076 -0.429481 1 0.5 0 1
173 1 48.8955 49.7429 0 48.8955 49.7429 0 363.447 287.701 -42.3965 -10.4723 0.6237 -0.781664 1 0.5 0 1
174 1 42.2855 25.9362 0 42.2855 25.9362 0 -600.293 660.717 -75.4651 43.2094 -0.907255 -0.420581 1 0.5 0 1
175 1 14.1878 8.61263 0 14.1878 8.61263 0 359.761 -464.51 -44.0384 -15.6521 0.755894 -0.654694 1 0.5 0 1
176 1 53.6465 54.6929 0 53.6465 54.6929 0 -25.0326 612.282 55.9456 30.8526 -0.94008 -0.340953 1 0.5 0 1
177 1 51.7173 60.14 0 51.7173 60.14 0 -1024.99 180.275 -9.19812 80.243 -0.80264 0.596464 1 0.5 0 1
178 1 4.36477 75.3557 0 4.36477 75.3557 0 -218.697 -690.913 -75.4883 16.6317 -0.898199 0.439589 1 0.5 0 1
179 1 35.3291 74.3779 0 35.3291 -4.88808 0 271.657 1523.59 -66.0241 -75.1054 -0.660241 -0.751054 1 0.5 0 1
180 1 68.4293 33.052 0 68.4293 33.052 0 -414.884 -1068.07 209.859 26.4425 0.899556 0.436806 1 0.5 0 1
181 1 62.356 12.9474 0 62.356 12.9474 0 -42.2801 336.505 -54.7586 52.4006 -0.125853 0.992049 1 0.5 0 1
182 1 39.1999 4.12853 0 39.1999 83.3945 0 -398.425 -216.254 0.678892 67.8892 0.469031 0.883182 1 0.5 0 1
183 1 26.6704 29.4087 0 26.6704 29.4087 0 411.922 -504.317 -2.04838 -89.5687 -0.339635 -0.940557 1 0.5 0 1
184 1 71.7933 31.2796 0 71.7933 31.2796 0 10.3577 157.371 34.3064 -44.198 -0.956343 0.292245 1 0.5 0 1
185 1 53.0336 50.5618 0 53.0336 50.5618 0 -162.327 866.934 4.40918 -26.4989 0.441693 0.897166 1 0.5 0 1
186 1 34.4046 20.1461 0 34.4046 20.1461 0 852.02 -20.3024 23.4598 97.2093 0.234598 0.972093 1 0.5 0 1
187 1 18.8199 68.777 0 18.8199 68.777 0 -207.529 312.204 -17.3328 137.964 0.210448 0.977605 1 0.5 0 1
188 1 70.703 68.7162 0 70.703 68.7162 0 325.941 19.1607 61.5935 60.3259 0.926125 -0.377218 1 0.5 0 1
189 1 3.80144 42.0736 0 3.80144 42.0736 0 -315.976 475.094 107.063 3.41004 -0.220564 -0.975372 1 0.5 0 1
190 1 32.4982 58.5932 0 32.4982 58.5932 0 4.2528 108.895 -72.0426 -29.9109 -0.894387 -0.447294 1 0.5 0 1
191 1 72.9145 79.2042 0 72.9145 -0.061834 0 -214.019 -121.902 -59.463 19.9036 -0.250218 -0.96819 1 0.5 0 1
192 1 53.9987 19.7414 0 53.9987 19.7414 0 177.493 335.323 -0.818229 68.2142 0.921794 -0.387679 1 0.5 0 1
193 1 38.1671 10.7694 0 38.1671 10.7694 0 -460.155 -218.081 -45.9449 8.31758 -0.954485 -0.298258 1 0.5 0 1
194 1 62.9374 43.2359 0 62.9374 43.2359 0 -329.932 135.727 -48.1017 -85.7879 -0.205155 0.978729 1 0.5 0 1
195 1 26.9518 10.2314 0 26.9518 10.2314 0 93.8951 760.353 14.7072 83.9814 -0.334091 0.942541 1 0.5 0 1
196 1 66.6394 37.7418 0 66.6394 37.7418 0 389.051 155.285 -25.1255 -15.7822 -0.926145 -0.377168 1 0.5 0 1
197 1 10.6198 36.5238 0 10.6198 36.5238 0 21.3486 -62.4514 -71.3999 -6.48438 -0.566853 0.823819 1 0.5 0 1
198 1 68.509 36.8827 0 68.509 36.8827 0 292.28 -886.524 -1.40329 -62.0747 0.00877249 -0.999962 1 0.5 0 1
199 1 27.636 9.28865 0 27.636 9.28865 0 -48.0845 -63.3199 21.3668 91.2033 0.366064 0.93059 1 0.5 0 1
200 1 0.0167903 41.6822 0 0.0167903 41.6822 0 -382.788 -667.077 20.7445 24.8308 0.221058 0.975261 1 0.5 0 1
201 1 36.0444 75.2833 0 36.0444 -3.98275 0 872.899 -375.748 32.4016 -94.6052 0.324016 -0.946052 1 0.5 0 1
202 1 78.4252 27.0788 0 -0.840834 27.0788 0 53.562 -88.3348 -16.0774 -102.874 -0.484123 -0.875 1 0.5 0 1
203 1 38.8863 44.1593 0 38.8863 44.1593 0 -161.475 1006.75 -30.8466 -114.893 -0.69704 0.717032 1 0.5 0 1
204 1 7.38178 9.42843 0 7.38178 9.42843 0 809.961 -77.86 19.0595 20.0149 0.14792 0.988999 1 0.5 0 1
205 1 42.7316 67.0319 0 42.7316 67.0319 0 182.959 214.48 -33.997 -47.2125 -0.0806978 -0.996739 1 0.5 0 1
206 1 14.0424 14.4784 0 14.0424 14.4784 0 660.121 -216.198 16.607 -72.0954 -0.217487 -0.976063 1 0.5 0 1
207 1 30.4312 41.8706 0 30.4312 41.8706 0 -604.191 597.534 8.93993 -49.807 -0.951808 0.306694 1 0.5 0 1
208 1 59.1296 59.2211 0 59.1296 59.2211 0 70.682 123.71 28.7769 -98.3885 -0.69397 0.720004 1 0.5 0 1
209 1 62.9919 15.7024 0 62.9919 15.7024 0 191.89 -738.319 38.9879 -65.6712 0.781191 0.624292 1 0.5 0 1
210 1 45.5365 0.886849 0 45.5365 80.1528 0 -845.761 -143.419 -61.6793 73.4446 -0.649164 0.760649 1 0.5 0 1
211 1 67.6315 33.6351 0 67.6315 33.6351 0 46.8257 -93.2457 -115.415 143.124 -0.895374 0.445315 1 0.5 0 1
212 1 68.0977 3.16314 0 68.0977 3.16314 0 -351.577 -1177.35 -8.43674 -99.6435 -0.0843674 -0.996435 1 0.5 0 1
213 1 6.34371 64.3012 0 6.34371 64.3012 0 30.898 332.464 120.685 -2.76456 0.982362 -0.186992 1 0.5 0 1
214 1 44.9816 60.0246 0 44.9816 60.0246 0 52.432 745.092 -68.688 71.6199 -0.577948 0.816073 1 0.5 0 1
215 1 78.1349 2.71748 0 -1.13109 2.71748 0 -500.387 -774.196 -33.5874 -80.9007 -0.20262 -0.979257 1 0.5 0 1
216 1 30.143 69.0519 0 30.143 69.0519 0 -378.607 548.869 -36.1297 25.3658 -0.67965 0.733537 1 0.5 0 1
217 1 52.2448 33.2313 0 52.2448 33.2313 0 -669.034 349.709 20.073 16.0451 -0.987839 0.155477 1 0.5 0 1
218 1 9.24833 25.1051 0 9.24833 25.1051 0 -13.2902 138.741 -21.1197 51.7854 0.0851129 0.996371 1 0.5 0 1
219 1 38.6101 55.5898 0 38.6101 55.5898 0 208.187 -123.5 34.0048 -24.8452 0.571352 -0.820705 1 0.5 0 1
220 1 41.186 18.8246 0 41.186 18.8246 0 244.65 483.461 95.8922 -43.4477 0.935987 -0.352036 1 0.5 0 1
221 1 55.8938 24.9833 0 55.8938 24.9833 0 330.965 503.821 -106.877 -12.2898 0.0794116 0.996842 1 0.5 0 1
222 1 47.1871 14.1127 0 47.1871 14.1127 0 -353.798 -860.668 -1.2309 51.3655 -0.993893 -0.11035 1 0.5 0 1
223 1 5.8062 21.4615 0 5.8062 21.4615 0 -467.583 -354.21 -7.96794 50.0797 0.283739 0.958902 1 0.5 0 1
224 1 1.01118 61.7962 0 1.01118 61.7962 0 184.757 610.664 -36.8124 -25.2426 -0.610036 0.792374 1 0.5 0 1
225 1 76.8638 18.151 0 76.8638 18.151 0 -112.712 567.82 64.4857 -38.5828 -0.583606 -0.812037 1 0.5 0 1
226 1 47.6167 40.9516 0 47.6167 40.9516 0 -271.029 115.265 10.1592 -95.0978 0.249071 -0.968485 1 0.5 0 1
227 1 50.914 10.4033 0 50.914 10.4033 0 769.658 862.787 -88.9198 -15.7521 0.532578 0.846381 1 0.5 0 1
228 1 22.1725 57.4811 0 22.1725 57.4811 0 332.784 -488.759 -2.21394 62.3327 0.856949 0.515401 1 0.5 0 1
229 1 49.5015 30.967 0 49.5015 30.967 0 -175.473 235.87 54.9399 -82.1821 0.821708 0.569909 1 0.5 0 1
230 1 77.6275 78.0638 0 77.6275 78.0638 0 -810.281 6.96977 -94.3319 38.1229 -0.667984 0.744175 1 0.5 0 1
231 1 18.6744 50.7622 0 18.6744 50.7622 0 -2.31605 -53.3747 89.4423 -44.7223 0.894423 -0.447223 1 0.5 0 1
232 1 40.5599 6.64396 0 40.5599 6.64396 0 59.4292 621.131 3.23925 81.363 -0.0460911 -0.998937 1 0.5 0 1
233 1 69.378 54.5192 0 69.378 54.5192 0 368.358 216.563 -102.628 53.4279 -0.536989 -0.843589 1 0.5 0 1
234 1 57.6347 6.49065 0 57.6347 6.49065 0 -217.475 391.008 19.4586 -84.3779 0.03584 -0.999358 1 0.5 0 1
235 1 18.0334 60.2666 0 18.0334 60.2666 0 660.695 1022.77 43.2253 28.7662 0.611848 0.790975 1 0.5 0 1
236 1 58.3229 67.6077 0 58.3229 67.6077 0 364.936 248.509 103.259 -57.1292 0.679803 -0.733395 1 0.5 0 1
237 1 23.3207 29.3482 0 23.3207 29.3482 0 -90.3116 330.655 85.5835 53.5267 0.922211 0.386687 1 0.5 0 1
238 1 51.575 68.0601 0 51.575 68.0601 0 -519.901 -641.885 -10.5388 -81.2369 0.432952 -0.901417 1 0.5 0 1
239 1 73.6857 15.379 0 73.6857 15.379 0 -359.508 -18.0295 2.66559 -3.57562 0.996806 0.0798626 1 0.5 0 1
240 1 3.77046 25.3063 0 3.77046 25.3063 0 241.419 85.2195 -6.50541 5.1256 0.540915 0.841077 1 0.5 0 1
241 1 72.2695 76.39 0 72.2695 76.39 0 -245.5 42.378 -81.5498 -236.12 -0.932982 -0.359924 1 0.5 0 1
242 1 59.0784 1.83636 0 59.0784 1.83636 0 589.363 139.121 44.526 -119.983 0.190183 -0.981749 1 0.5 0 1
243 1 27.0257 64.369 0 27.0257 64.369 0 207.438 63.9752 -78.0174 12.7544 -0.960398 0.278633 1 0.5 0 1
244 1 60.4867 45.6453 0 60.4867 45.6453 0 -111.539 -108.716 17.3187 12.1579 -0.70609 -0.708122 1 0.5 0 1
245 1 41.2443 24.2973 0 41.2443 24.2973 0 384.9 -275.388 32.3315 67.6411 0.855194 0.518309 1 0.5 0 1
246 1 23.1234 36.921 0 23.1234 36.921 0 -8.07045 780.133 20.5785 -21.1537 0.679709 -0.733482 1 0.5 0 1
247 1 59.8561 78.8589 0 59.8561 -0.407123 0 -664.013 187.28 25.635 -51.9225 0.120382 -0.992728 1 0.5 0 1
248 1 16.6892 76.392 0 16.6892 76.392 0 347.95 -230.098 49.2608 79.224 -0.524215 0.851586 1 0.5 0 1
249 1 27.9361 19.9101 0 27.9361 19.9101 0 -110.224 766.257 66.4251 -74.751 0.664251 -0.74751 1 0.5 0 1
250 1 0.721755 26.9038 0 79.9878 26.9038 0 202.404 452.751 32.167 76.7972 0.896634 -0.442773 1 0.5 0 1
251 1 22.3783 75.8202 0 22.3783 75.8202 0 544.045 447.18 39.0289 -11.6791 0.941031 0.33832 1 0.5 0 1
252 1 21.9281 53.305 0 21.9281 53.305 0 -570.213 122.537 76.4461 64.4671 0.764461 0.644671 1 0.5 0 1
253 1 32.3994 31.1133 0 32.3994 31.1133 0 -352.078 493.858 -60.2898 -85.777 -0.286324 0.958133 1 0.5 0 1
254 1 48.3672 43.3067 0 48.3672 43.3067 0 -282.441 323.698 -65.0415 75.9579 -0.650415 0.759579 1 0.5 0 1
255 1 76.8635 60.7686 0 76.8635 60.7686 0 -274.061 86.3127 11.8672 -73.3565 -0.233432 0.972373 1 0.5 0 1
256 1 4.20906 30.8666 0 4.20906 30.8666 0 383.19 -930.17 -5.85283 76.441 -0.4482 0.893933 1 0.5 0 1
257 1 37.8328 66.0852 0 37.8328 66.0852 0 -112.305 341.575 44.5424 89.532 0.445424 0.89532 1 0.5 0 1
258 1 22.2664 24.5366 0 22.2664 24.5366 0 -264.664 -345.109 62.3411 -60.3828 -0.970933 -0.23935 1 0.5 0 1
259 1 6.94893 12.1968 0 86.2149 12.1968 0 371.286 -770.948 -19.1131 -22.5585 0.926266 -0.376871 1 0.5 0 1
260 1 72.0047 55.4563 0 72.0047 55.4563 0 255.629 -505.706 73.6642 103.222 0.973616 -0.228192 1 0.5 0 1
261 1 17.9479 43.1579 0 17.9479 43.1579 0 -48.5681 347.625 -71.0987 -70.3205 -0.710987 -0.703205 1 0.5 0 1
262 1 2.81657 11.9531 0 82.0826 11.9531 0 -260.738 105.2 67.2415 41.4223 0.976852 0.213916 1 0.5 0 1
263 1 7.95908 12.0548 0 7.95908 12.0548 0 -140.365 -185.34 223.33 -81.2477 0.162662 -0.986682 1 0.5 0 1
264 1 4.2411 19.5452 0 83.5071 19.5452 0 -143.868 -177.139 -17.226 16.8601 0.992198 -0.124673 1 0.5 0 1
265 1 28.5187 65.6153 0 28.5187 65.6153 0 -215.714 -217.601 19.1744 54.3222 -0.949026 0.315197 1 0.5 0 1
266 1 24.5565 78.0303 0 24.5565 78.0303 0 -95.7125 216.27 -133.888 43.4624 0.150827 -0.98856 1 0.5 0 1
267 1 15.0426 17.17 0 15.0426 17.17 0 742.412 53.5084 -19.2128 101.795 -0.950449 -0.310881 1 0.5 0 1
268 1 41.7193 70.1641 0 41.7193 70.1641 0 245.949 -154.489 -84.2998 124.282 0.556045 0.831152 1 0.5 0 1
269 1 8.36048 25.9031 0 87.6265 25.9031 0 170.536 350.193 97.1017 -23.901 0.971017 -0.23901 1 0.5 0 1
270 1 78.7603 11.3003 0 78.7603 11.3003 0 -113.687 604.028 36.6215 -15.6766 0.649556 -0.760314 1 0.5 0 1
271 1 22.5873 61.1237 0 22.5873 61.1237 0 -42.45 1147.15 21.651 -33.8865 0.817144 -0.576433 1 0.5 0 1
272 1 39.8739 22.1126 0 39.8739 22.1126 0 -14.1552 -414.131 57.6255 46.3773 0.951024 0.309117 1 0.5 0 1
273 1 35.2248 28.4715 0 35.2248 28.4715 0 53.761 504.161 -116.343 -60.6752 -0.34712 0.937821 1 0.5 0 1
274 1 37.3759 21.7794 0 37.3759 21.7794 0 155.994 508.606 -83.9238 -41.0966 -0.895065 -0.445937 1 0.5 0 1
275 1 22.632 3.35782 0 22.632 3.35782 0 -566.889 45.3281 -40.8293 -125.262 0.894371 -0.447326 1 0.5 0 1
276 1 53.286 25.8848 0 53.286 25.8848 0 123.1 -389.088 -20.0721 112.463 -0.347163 0.937805 1 0.5 0 1
277 1 7.36504 46.6644 0 7.36504 46.6644 0 -463.492 0.442389 -101.192 -14.9908 -0.951182 -0.308632 1 0.5 0 1
278 1 8.38119 38.8913 0 8.38119 38.8913 0 362.535 -492.995 95.0771 27.706 -0.22736 0.973811 1 0.5 0 1
279 1 66.0573 14.0116 0 66.0573 14.0116 0 -176.565 395.366 297.051 -88.6729 0.793448 0.608638 1 0.5 0 1
280 1 60.3283 13.6762 0 60.3283 13.6762 0 -519.016 -186.39 101.436 -21.2559 0.978931 -0.204191 1 0.5 0 1
281 1 46.0909 35.3101 0 46.0909 35.3101 0 520.425 -73.8938 96.5059 26.2034 0.965059 0.262034 1 0.5 0 1
282 1 27.2658 36.5017 0 27.2658 36.5017 0 150.47 286.961 -52.7341 -105.527 0.778838 -0.627226 1 0.5 0 1
283 1 17.5371 61.2861 0 17.5371 61.2861 0 21.2137 187.152 -6.13288 57.8434 -0.644339 0.76474 1 0.5 0 1
284 1 25.284 70.2266 0 25.284 70.2266 0 266.127 669.086 -24.9452 10.5138 -0.271729 0.962374 1 0.5 0 1
285 1 2.95916 43.9859 0 82.2252 43.9859 0 -46.8821 410.357 -37.4835 38.2382 0.0518119 -0.998657 1 0.5 0 1
286 1 23.7717 42.4302 0 23.7717 42.4302 0 1185.26 -98.5818 0.381549 227.678 0.206762 0.978391 1 0.5 0 1