ITEM: TIMESTEP
150000
ITEM: NUMBER OF ATOMS
4000
ITEM: BOX BOUNDS pp pp pp
0.0000000000000000e+00 7.9266000000000005e+01
0.0000000000000000e+00 7.9266000000000005e+01
-5.0000000000000000e-01 5.0000000000000000e-01
ITEM: ATOMS id type x y z xu yu zu vx vy fx fy mux muy mu radius omegaz mass
1 1 77.404 4.88742 0 77.404 84.1534 0 177.552 -81.0103 96.2842 -27.0064 0.962842 -0.270064 1 0.5 0 1
2 1 23.1301 59.4407 0 23.1301 -19.8253 0 114.345 719.491 -133.069 -82.2718 0.0836708 -0.996493 1 0.5 0 1
3 1 37.3004 51.8366 0 37.3004 -27.4294 0 -736.001 105.189 -29.2979 31.184 -0.99195 0.126631 1 0.5 0 1
4 1 52.9045 30.2444 0 52.9045 109.51 0 -141.828 -977.52 -22.383 -98.9792 -0.954198 -0.299176 1 0.5 0 1
5 1 15.6754 26.4978 0 15.6754 26.4978 0 -747.638 5.18889 -18.3491 75.3309 -0.954894 0.296948 1 0.5 0 1
6 1 76.9768 25.1876 0 -2.2892 25.1876 0 -493.616 720.625 -37.306 -4.54516 -0.958775 0.284167 1 0.5 0 1
7 1 69.7028 46.5972 0 69.7028 46.5972 0 -515.085 442.681 -22.1379 -280.685 -0.769729 0.638371 1 0.5 0 1
8 1 29.0994 65.8438 0 29.0994 -13.4222 0 172.876 590.996 149.525 72.3232 -0.0088902 -0.99996 1 0.5 0 1
9 1 63.9083 19.9906 0 63.9083 19.9906 0 -134.044 10.8732 -70.5205 -22.8386 0.0774987 -0.996992 1 0.5 0 1
10 1 36.5793 54.9823 0 36.5793 54.9823 0 634.113 -219.909 -35.984 33.7896 -0.999936 -0.011344 1 0.5 0 1
11 1 40.1988 43.3342 0 -39.0672 43.3342 0 537.228 -474.081 8.72854 -25.5607 0.0800007 -0.996795 1 0.5 0 1
12 1 73.1449 72.9311 0 73.1449 72.9311 0 -360.302 199.968 1.57208 96.1647 0.33874 0.94088 1 0.5 0 1
13 1 30.5416 43.2243 0 30.5416 43.2243 0 -197.823 281.319 -39.3573 71.6369 0.970608 -0.240666 1 0.5 0 1
14 1 33.411 32.0185 0 -45.855 32.0185 0 -366.059 -38.7206 -46.5187 -88.5213 -0.465187 -0.885213 1 0.5 0 1
15 1 25.2476 43.7328 0 25.2476 43.7328 0 -943.53 -222.488 -119.267 76.1685 -0.976465 -0.215674 1 0.5 0 1
16 1 30.2708 75.3106 0 -48.9952 -3.95539 0 -12.3275 126.254 16.5189 -83.4481 -0.19184 -0.981426 1 0.5 0 1
17 1 57.1023 74.1096 0 57.1023 74.1096 0 538.37 -560.628 76.5501 99.5154 0.750388 0.660998 1 0.5 0 1
18 1 18.8113 18.3759 0 18.8113 18.3759 0 624.011 -363.805 -23.0452 88.1305 -0.119031 0.992891 1 0.5 0 1
19 1 7.91506 38.1443 0 7.91506 38.1443 0 334.361 -388.29 -39.5673 176.801 -0.962706 -0.270549 1 0.5 0 1
20 1 28.6308 58.5646 0 28.6308 58.5646 0 -192.593 60.0273 -79.2879 -90.8138 0.994592 0.103863 1 0.5 0 1
21 1 27.7759 14.3648 0 27.7759 14.3648 0 -202.012 -412.395 -9.9245 -86.1851 -0.731285 0.682072 1 0.5 0 1
22 1 65.4857 23.2028 0 65.4857 23.2028 0 -285.941 -59.1931 -28.7357 -85.5528 0.919444 -0.39322 1 0.5 0 1
23 1 66.6401 61.1177 0 66.6401 -18.1483 0 -620.391 1206.42 -66.1631 51.4551 0.70656 0.707653 1 0.5 0 1
24 1 66.3951 54.3975 0 66.3951 -24.8685 0 -440.14 466.622 -35.2303 -15.7406 0.294458 -0.955665 1 0.5 0 1
25 1 40.3422 58.8088 0 -38.9238 -20.4572 0 -30.0848 -786.187 -44.457 -72.2607 -0.824176 -0.566334 1 0.5 0 1
26 1 23.7616 38.7846 0 23.7616 -40.4814 0 -313.6 -246.384 57.0653 8.96395 0.989103 -0.147224 1 0.5 0 1
27 1 13.0088 58.7435 0 13.0088 58.7435 0 360.849 281.368 -38.3891 92.3378 -0.383891 0.923378 1 0.5 0 1
28 1 17.4085 70.0609 0 17.4085 70.0609 0 -89.2163 448.939 224.253 293.773 0.121628 0.992576 1 0.5 0 1
29 1 78.3248 36.6421 0 -0.941211 36.6421 0 -226.754 -561.609 134.386 230.605 -0.976649 -0.214839 1 0.5 0 1
30 1 52.1161 25.8429 0 52.1161 105.109 0 516.048 415.061 54.3783 77.1835 0.786471 0.617628 1 0.5 0 1
31 1 6.97123 25.2065 0 6.97123 25.2065 0 -143.847 241.012 -96.7751 -25.1907 -0.967751 -0.251907 1 0.5 0 1
32 1 31.2788 51.3203 0 31.2788 51.3203 0 317.094 -197.17 -98.8358 -19.9255 0.798446 -0.602067 1 0.5 0 1
33 1 62.7008 56.0101 0 62.7008 -23.2559 0 -172.13 30.6136 94.1503 9.89536 0.999315 -0.0370082 1 0.5 0 1
34 1 9.03368 41.8721 0 88.2997 41.8721 0 420.343 555.578 47.3917 -250.431 -0.129491 0.991581 1 0.5 0 1
35 1 57.704 62.146 0 -21.562 62.146 0 134.888 -443.459 -96.0223 -78.2745 -0.97991 0.199438 1 0.5 0 1
36 1 56.8091 55.5269 0 56.8091 -23.7391 0 113.672 418.171 64.4526 -59.263 0.54651 -0.837452 1 0.5 0 1
37 1 73.4587 40.0207 0 73.4587 40.0207 0 -517.975 -196.771 139.9 -100.84 0.724959 -0.688792 1 0.5 0 1
38 1 22.7081 58.5221 0 101.974 58.5221 0 -626.154 245.663 165.823 -32.2304 0.254689 0.967023 1 0.5 0 1
39 1 36.0215 50.0241 0 36.0215 -29.2419 0 -25.7649 522.841 51.349 2.09692 0.121271 -0.992619 1 0.5 0 1
40 1 30.8526 14.7284 0 -48.4134 14.7284 0 792.341 -340.609 -79.2816 60.1321 -0.764627 0.644473 1 0.5 0 1
41 1 70.7062 49.881 0 70.7062 49.881 0 -276.191 528.527 296.668 -4.27881 0.352087 -0.935967 1 0.5 0 1
42 1 74.2958 57.7534 0 -4.97021 57.7534 0 27.5227 -189.027 -55.1875 -167.84 -0.561343 -0.827583 1 0.5 0 1
43 1 58.6205 63.8413 0 -20.6455 63.8413 0 793.623 -914.843 -76.1304 -39.2475 -0.790873 0.61198 1 0.5 0 1
44 1 55.585 13.7089 0 55.585 92.9749 0 -626.894 -398.95 -42.1674 172.327 0.419587 0.907715 1 0.5 0 1
45 1 39.2228 16.0499 0 39.2228 16.0499 0 -650.574 -455.014 79.1279 -67.7112 0.694786 -0.719216 1 0.5 0 1
46 1 10.635 38.7368 0 10.635 38.7368 0 -78.5274 354.498 16.215 -98.6015 0.662075 0.749437 1 0.5 0 1
47 1 20.1036 72.2297 0 20.1036 -7.03634 0 182.698 -225.814 197.539 -109.41 0.998249 -0.0591561 1 0.5 0 1
48 1 35.9758 39.8754 0 35.9758 39.8754 0 -1060.2 521.574 -66.3383 -50.3115 -0.998782 0.0493443 1 0.5 0 1
49 1 24.0986 16.4419 0 103.365 95.7079 0 -281.202 475.462 -146.576 52.2711 0.878163 -0.478361 1 0.5 0 1
50 1 59.0407 29.8186 0 59.0407 29.8186 0 -14.5156 149.346 75.7362 -143.361 -0.474369 0.880326 1 0.5 0 1
51 1 70.0545 17.8329 0 -9.2115 17.8329 0 -360.405 -754.706 34.5017 -14.7776 -0.705652 0.708559 1 0.5 0 1
52 1 19.9793 9.26827 0 99.2453 9.26827 0 458.917 352.944 -60.8705 114.113 0.00309626 0.999995 1 0.5 0 1
53 1 31.764 38.8467 0 31.764 118.113 0 -95.589 -249.133 -45.5001 -2.81197 -0.499264 0.86645 1 0.5 0 1
54 1 57.3923 26.1316 0 57.3923 26.1316 0 -149.443 347.199 -75.112 -78.4372 0.0247063 -0.999695 1 0.5 0 1
55 1 21.5326 8.33975 0 100.799 87.6058 0 21.9086 15.0885 37.3425 29.9912 0.903557 0.428468 1 0.5 0 1
56 1 34.5066 51.4438 0 34.5066 51.4438 0 561.819 -395.095 -14.8192 -18.3456 -0.623021 0.782205 1 0.5 0 1
57 1 25.8412 76.3609 0 25.8412 76.3609 0 325.721 723.51 -72.1424 -141.688 -0.680167 0.733058 1 0.5 0 1
58 1 72.2435 23.8641 0 -7.02249 23.8641 0 269.294 -275.033 152.271 -48.2524 -0.44124 0.897389 1 0.5 0 1
59 1 61.86 31.1786 0 61.86 31.1786 0 -106.232 -500.387 -1.64729 -22.2037 -0.596955 0.802275 1 0.5 0 1
60 1 59.9045 36.9408 0 59.9045 36.9408 0 15.8284 230.191 31.0117 1.08977 0.965576 0.26012 1 0.5 0 1
61 1 62.1882 40.7378 0 62.1882 40.7378 0 142.024 -108.286 10.1588 164.081 0.492971 0.870046 1 0.5 0 1
62 1 68.6505 73.1465 0 68.6505 -6.11946 0 434.271 -821.521 0.126617 -41.7154 0.999734 0.0230613 1 0.5 0 1
63 1 47.7641 35.8821 0 -31.5019 35.8821 0 31.6503 -22.8469 41.6032 -70.561 -0.189557 -0.98187 1 0.5 0 1
64 1 69.6128 73.5374 0 69.6128 73.5374 0 -278.575 159.529 52.1821 -1.00236 0.104758 0.994498 1 0.5 0 1
65 1 9.62865 17.1086 0 88.8947 96.3746 0 389.133 411.043 67.0282 67.3975 0.622775 0.782401 1 0.5 0 1
66 1 10.885 7.41478 0 90.151 86.6808 0 638.685 -0.968515 70.6441 9.30848 0.963538 0.267572 1 0.5 0 1
67 1 57.5799 38.9701 0 57.5799 38.9701 0 324.413 -394.052 -34.6795 -11.524 0.726739 0.686913 1 0.5 0 1
68 1 36.1317 63.5305 0 36.1317 63.5305 0 789.273 304.637 -63.5658 -70.683 -0.905127 -0.425141 1 0.5 0 1
69 1 26.4971 60.7239 0 26.4971 60.7239 0 -669.857 -14.8178 23.0074 -14.2961 -0.770668 -0.637237 1 0.5 0 1
70 1 50.3091 36.2718 0 50.3091 115.538 0 -181.148 128.288 -26.5704 1.22216 0.981286 -0.192558 1 0.5 0 1
71 1 19.9803 17.7096 0 19.9803 17.7096 0 347.199 339.814 34.7001 51.9083 0.0398686 -0.999205 1 0.5 0 1
72 1 3.91062 56.1786 0 3.91062 56.1786 0 528.533 -485.893 -7.69768 59.2113 -0.121858 -0.992548 1 0.5 0 1
73 1 50.7182 0.33184 0 50.7182 0.33184 0 -908.003 -744.713 -77.1613 103.952 -0.782031 0.62324 1 0.5 0 1
74 1 1.69259 70.1237 0 80.9586 70.1237 0 -63.755 -417.963 16.1541 -8.88947 0.999946 0.0104325 1 0.5 0 1
75 1 0.703387 35.5143 0 0.703387 35.5143 0 -881.939 57.5419 3.14465 147.041 -0.999804 -0.0198197 1 0.5 0 1
76 1 62.5682 29.5754 0 -16.6978 29.5754 0 -247.657 262.762 144.849 51.6424 -0.922375 0.386295 1 0.5 0 1
77 1 2.99773 31.8674 0 2.99773 31.8674 0 -161.439 116.009 -6.90384 33.9527 0.965364 0.260907 1 0.5 0 1
78 1 15.6244 57.604 0 15.6244 57.604 0 253.483 91.8852 -67.089 13.6558 0.33034 0.943862 1 0.5 0 1
79 1 23.2538 0.715833 0 23.2538 79.9818 0 -250.863 451.161 80.0316 86.8949 -0.632127 0.774865 1 0.5 0 1
80 1 12.0714 24.1291 0 12.0714 -55.1369 0 1067.72 -505.639 -34.2556 14.8815 -0.914318 -0.404997 1 0.5 0 1
81 1 50.6465 33.8141 0 129.913 33.8141 0 288.279 -290.161 31.4053 -45.4136 0.44324 -0.896403 1 0.5 0 1
82 1 5.16051 36.7325 0 5.16051 36.7325 0 374.953 -64.8367 150.637 182.467 -0.309241 0.950984 1 0.5 0 1
83 1 62.2199 67.2956 0 62.2199 67.2956 0 195.586 -914.841 174.74 -21.3448 0.943446 0.331527 1 0.5 0 1
84 1 0.510472 43.0208 0 0.510472 43.0208 0 620.134 269.495 -87.4832 -133.66 -0.289354 -0.957222 1 0.5 0 1
85 1 26.3436 62.4275 0 26.3436 -16.8385 0 94.436 -901.268 -307.755 432.558 0.468805 -0.883302 1 0.5 0 1
86 1 10.1583 14.705 0 10.1583 14.705 0 791.034 -160.404 57.9852 81.4722 0.579852 0.814722 1 0.5 0 1
87 1 34.3556 47.8942 0 34.3556 47.8942 0 316.792 393.156 70.5525 -228.65 -0.941992 -0.335636 1 0.5 0 1
88 1 40.7325 38.7402 0 40.7325 38.7402 0 -357.717 448.942 -26.8313 -40.6616 -0.91572 -0.401817 1 0.5 0 1
89 1 23.0846 67.4918 0 23.0846 67.4918 0 816.492 53.9587 79.3896 23.3332 0.944123 -0.329594 1 0.5 0 1
90 1 8.54463 34.4324 0 8.54463 34.4324 0 404.595 368.461 -48.285 34.6373 -0.680489 -0.732758 1 0.5 0 1
91 1 17.3555 56.837 0 17.3555 -22.429 0 750.569 -358.274 -112.249 95.0698 0.849563 0.527487 1 0.5 0 1
92 1 3.87935 53.1058 0 3.87935 53.1058 0 -102.079 119.055 -4.92112 10.0068 -0.952168 0.305575 1 0.5 0 1
93 1 4.76739 43.3965 0 4.76739 43.3965 0 173.399 775.549 -61.9736 -77.3767 -0.983827 0.179121 1 0.5 0 1
94 1 74.6121 34.0187 0 74.6121 34.0187 0 -701.385 -319.322 91.0682 42.4117 0.938648 0.344877 1 0.5 0 1
95 1 69.695 45.6357 0 69.695 45.6357 0 531.233 373.654 29.2012 150.658 0.883311 0.468788 1 0.5 0 1
96 1 57.3882 37.9599 0 57.3882 37.9599 0 -22.33 529.229 40.0391 64.7879 0.933351 0.358964 1 0.5 0 1
97 1 59.8678 29.2487 0 59.8678 29.2487 0 -116.484 -225.879 -32.8742 135.879 -0.501473 -0.865173 1 0.5 0 1
98 1 16.1188 18.1925 0 16.1188 97.4585 0 -411.193 -481.093 3.73894 39.3126 0.774003 0.633182 1 0.5 0 1
99 1 45.6792 3.81859 0 45.6792 3.81859 0 56.3211 452.555 43.718 86.1485 0.405719 -0.913998 1 0.5 0 1
100 1 76.1947 41.2429 0 76.1947 41.2429 0 -166.82 804.097 -22.1047 26.332 0.218033 -0.975941 1 0.5 0 1
101 1 45.0345 71.945 0 45.0345 -7.32103 0 204.585 405.815 17.914 -84.1188 0.220145 -0.975467 1 0.5 0 1
102 1 2.82678 40.4095 0 2.82678 40.4095 0 -290.741 -265.604 133.705 -14.7951 -0.997995 0.0632902 1 0.5 0 1
103 1 0.805858 72.6598 0 0.805858 72.6598 0 56.9858 -182.852 -73.1261 68.2097 -0.731261 0.682097 1 0.5 0 1
104 1 56.7964 39.6141 0 56.7964 118.88 0 -824.376 385.111 176.719 -18.9187 0.995927 0.0901678 1 0.5 0 1
105 1 48.163 55.0523 0 -31.103 -24.2137 0 475.2 -237.579 -24.5527 96.939 -0.245527 0.96939 1 0.5 0 1
106 1 12.4209 33.7888 0 12.4209 33.7888 0 13.8286 -12.0968 -21.4421 -51.5071 -0.294515 -0.955647 1 0.5 0 1
107 1 67.2919 32.7809 0 67.2919 32.7809 0 521.461 -212.067 -114.14 78.4761 -0.979344 0.202202 1 0.5 0 1
108 1 4.12455 34.2701 0 4.12455 113.536 0 -96.2776 22.274 132.765 -9.87511 0.62263 0.782517 1 0.5 0 1
109 1 60.9779 67.7376 0 -18.2881 67.7376 0 139.848 338.654 -67.9536 -26.1594 -0.832235 0.554423 1 0.5 0 1
110 1 24.1485 36.0879 0 24.1485 36.0879 0 -191.401 -324.248 95.6105 -81.4152 0.949751 -0.313005 1 0.5 0 1
111 1 40.5963 25.3611 0 40.5963 25.3611 0 399.405 -1225.6 19.4599 93.3176 0.610886 0.791719 1 0.5 0 1
112 1 12.6628 46.0216 0 12.6628 46.0216 0 -322.298 8.89522 23.9858 60.0284 -0.866538 0.499112 1 0.5 0 1
113 1 42.6039 28.9056 0 -36.6621 28.9056 0 -351.241 212.362 30.0711 95.3715 0.300711 0.953715 1 0.5 0 1
114 1 32.1147 50.7782 0 32.1147 50.7782 0 506.667 -162.52 -68.998 -2.8661 0.974353 0.225027 1 0.5 0 1
115 1 59.4228 6.36258 0 -19.8432 6.36258 0 -213.346 204.355 -53.8608 84.2557 -0.538608 0.842557 1 0.5 0 1
116 1 27.0462 71.0516 0 27.0462 -8.21436 0 28.9004 789.07 121.549 -191.14 0.189862 -0.981811 1 0.5 0 1
117 1 51.2282 60.741 0 51.2282 60.741 0 -520.079 -375.143 -66.6505 -74.5501 -0.666505 -0.745501 1 0.5 0 1
118 1 58.1694 37.2848 0 58.1694 37.2848 0 316.751 -298.221 -58.1252 -110.236 0.321613 -0.946871 1 0.5 0 1
119 1 48.5744 18.3911 0 48.5744 18.3911 0 195.95 14.3459 74.6855 -160.858 0.920994 -0.389577 1 0.5 0 1
120 1 16.6243 20.178 0 95.8903 20.178 0 14.9103 -233.666 -14.5976 50.6608 0.998229 0.059484 1 0.5 0 1
121 1 23.965 19.2446 0 -55.301 19.2446 0 -466.146 69.9764 54.4464 -66.1117 -0.309237 -0.950985 1 0.5 0 1
122 1 38.5033 6.60908 0 38.5033 85.8751 0 -262.725 -216.805 17.4136 117.009 0.704756 0.70945 1 0.5 0 1
123 1 0.177613 28.3356 0 0.177613 28.3356 0 -411.756 -443.732 103.969 16.3649 -0.125834 0.992051 1 0.5 0 1
124 1 44.1117 45.7702 0 44.1117 45.7702 0 104.534 -347.027 -49.0371 77.0563 -0.47832 0.878185 1 0.5 0 1
125 1 64.6473 22.6264 0 64.6473 22.6264 0 213.397 550.066 -4.21694 62.9084 0.961105 0.276184 1 0.5 0 1
126 1 12.0132 11.4932 0 91.2792 90.7592 0 -327.813 -11.5176 36.2755 17.0912 0.693435 0.720519 1 0.5 0 1
127 1 62.9628 25.925 0 62.9628 105.191 0 -299.198 557.053 -10.964 19.235 0.948968 0.315374 1 0.5 0 1
128 1 23.4791 41.6445 0 -55.7869 41.6445 0 -249.251 192.018 -42.4573 -19.2578 -0.984447 -0.17568 1 0.5 0 1
129 1 68.2135 54.3228 0 68.2135 -24.9432 0 -654.616 807.269 77.5754 11.3889 0.98641 -0.164304 1 0.5 0 1
130 1 74.3839 53.7067 0 74.3839 -25.5593 0 -489.978 441.86 107.189 -109.593 0.0237655 -0.999718 1 0.5 0 1
131 1 65.2244 73.1845 0 -14.0416 73.1845 0 557.33 -539.458 -23.1662 67.8329 -0.62774 0.778423 1 0.5 0 1
132 1 67.6905 26.2531 0 -11.5755 105.519 0 -424.42 -97.6969 44.4994 60.5685 -0.285228 0.95846 1 0.5 0 1
133 1 60.7958 29.7487 0 60.7958 109.015 0 -331.387 -31.2111 130.783 66.2658 -0.246813 0.969063 1 0.5 0 1
134 1 33.7621 63.8229 0 33.7621 63.8229 0 -45.5316 93.134 -172.42 -143.791 -0.501949 -0.864897 1 0.5 0 1
135 1 43.9519 25.7742 0 43.9519 105.04 0 346.798 -0.509138 -65.5625 75.5086 -0.655625 0.755086 1 0.5 0 1
136 1 39.8194 42.2377 0 39.8194 121.504 0 -283.641 600.488 20.067 -71.0306 -0.821668 0.569966 1 0.5 0 1
137 1 36.3577 45.456 0 115.624 45.456 0 330.806 -101.994 65.7828 -29.1326 0.369624 0.929181 1 0.5 0 1
138 1 25.5544 5.83074 0 25.5544 5.83074 0 -114.429 282.724 -40.6182 -50.8652 -0.882738 -0.469865 1 0.5 0 1
139 1 35.5155 61.7438 0 35.5155 -17.5222 0 170.806 353.189 63.7863 -165.483 -0.998154 0.0607338 1 0.5 0 1
140 1 25.3407 77.9903 0 25.3407 -1.27566 0 52.3588 -310.79 20.8631 -17.1002 -0.942763 -0.333462 1 0.5 0 1
141 1 11.0148 52.4418 0 11.0148 52.4418 0 -173.172 81.0188 -67.0375 -95.3693 -0.977491 0.210976 1 0.5 0 1
142 1 19.8324 60.8343 0 19.8324 60.8343 0 585.387 -720.216 -59.3971 119.162 -0.561242 0.827652 1 0.5 0 1
143 1 18.2734 34.1067 0 18.2734 113.373 0 -1429.83 112.122 13.5626 123.397 -0.786771 0.617244 1 0.5 0 1
144 1 55.8215 51.0183 0 55.8215 -28.2477 0 -622.335 149.976 72.8935 -29.0819 -0.710732 -0.703463 1 0.5 0 1
145 1 63.4503 12.0845 0 63.4503 91.3505 0 131.487 111.026 -19.8891 38.3957 0.761206 0.648511 1 0.5 0 1
146 1 24.0816 76.781 0 24.0816 -2.48496 0 214.336 185.787 43.911 118.179 -0.226069 -0.974111 1 0.5 0 1
147 1 71.2705 74.0341 0 71.2705 -5.23193 0 230.879 403.958 -50.1179 -43.6271 -0.126593 -0.991955 1 0.5 0 1
148 1 17.4916 12.1687 0 96.7576 12.1687 0 -751.434 1241.54 73.1078 -50.8737 0.88542 -0.464791 1 0.5 0 1
149 1 76.7405 28.2348 0 76.7405 107.501 0 18.9533 -316.919 -129.149 -0.631565 0.900019 0.435851 1 0.5 0 1
150 1 71.7549 32.8697 0 -7.51111 32.8697 0 448.324 -380.436 184.97 224.22 -0.434849 0.900503 1 0.5 0 1
151 1 3.01427 55.651 0 82.2803 -23.615 0 -470.367 559.923 0.205144 -212.243 0.27215 -0.962255 1 0.5 0 1
152 1 26.7441 43.4788 0 26.7441 122.745 0 479.344 -188.697 80.523 90.2348 0.70005 0.714094 1 0.5 0 1
153 1 76.0562 57.7583 0 76.0562 57.7583 0 89.3718 649.93 0.666073 -140.919 0.416071 -0.909332 1 0.5 0 1
154 1 4.88285 47.4723 0 4.88285 47.4723 0 -822.362 -64.2577 211.831 -40.0143 0.799136 -0.60115 1 0.5 0 1
155 1 20.5549 12.0696 0 -58.7111 12.0696 0 -593.44 218.23 65.5425 -10.8433 -0.995828 -0.0912509 1 0.5 0 1
156 1 76.4882 46.1137 0 76.4882 46.1137 0 -410.559 -34.4266 288.043 37.1696 -0.579631 0.814879 1 0.5 0 1
157 1 69.243 18.4148 0 -10.023 18.4148 0 -173.645 -163.828 -140.482 -17.0375 -0.269594 0.962974 1 0.5 0 1
158 1 71.303 36.3312 0 -7.96304 36.3312 0 -493.119 -90.8649 -26.1838 16.7925 -0.735149 0.677905 1 0.5 0 1
159 1 68.9532 13.7523 0 68.9532 93.0183 0 -22.9598 -124.904 -14.4233 6.63465 -0.781742 0.623602 1 0.5 0 1
160 1 26.2259 74.5875 0 26.2259 -4.6785 0 425.148 -527.05 108.709 -5.43037 -0.537465 0.843286 1 0.5 0 1
161 1 5.06869 69.6905 0 5.06869 -9.57551 0 -553.206 276.247 -39.5492 -17.2863 0.377382 -0.926058 1 0.5 0 1
162 1 7.38892 49.0817 0 7.38892 49.0817 0 71.574 237.229 42.93 93.4018 -0.867675 0.497133 1 0.5 0 1
163 1 66.2125 45.3597 0 66.2125 45.3597 0 516.618 696.496 25.7669 -74.689 0.406593 -0.913609 1 0.5 0 1
164 1 30.6913 46.2023 0 30.6913 46.2023 0 -597.931 -88.9687 -130.328 -66.3672 0.603865 -0.797087 1 0.5 0 1
165 1 46.8643 61.0746 0 46.8643 -18.1914 0 -213.397 291.668 -97.1814 -32.8582 -0.368517 -0.929621 1 0.5 0 1
166 1 13.5732 42.4992 0 13.5732 42.4992 0 112.637 161.604 -9.7749 -99.4195 -0.584515 -0.811383 1 0.5 0 1
167 1 60.8767 20.9871 0 60.8767 20.9871 0 114.073 1047.71 108.805 27.1825 0.65272 -0.7576 1 0.5 0 1
168 1 23.237 10.8138 0 23.237 90.0798 0 -532.231 772.867 -93.5086 -111.671 -0.649818 0.76009 1 0.5 0 1
169 1 29.5568 34.2107 0 29.5568 113.477 0 471.897 -690.433 -69.5013 71.8998 -0.695013 0.718998 1 0.5 0 1
170 1 71.5386 5.93472 0 71.5386 85.2007 0 415.624 -68.2295 38.4978 44.423 0.820989 0.570944 1 0.5 0 1
171 1 15.5669 29.6119 0 94.8329 29.6119 0 10.0747 -230 63.0221 24.3811 0.997474 0.0710316 1 0.5 0 1
172 1 9.11003 52.2406 0 9.11003 -27.0254 0 13.4237 -376.785 -10.9956 -78.0977 -0.962905 -0.269842 1 0.5 0 1
173 1 44.4252 73.9785 0 44.4252 -5.28751 0 132.677 227.083 -86.7675 -49.7132 -0.867675 -0.497132 1 0.5 0 1
174 1 9.95587 49.6515 0 9.95587 49.6515 0 524.43 28.404 52.0849 53.5073 -0.959946 0.280184 1 0.5 0 1
175 1 25.2136 10.1315 0 25.2136 10.1315 0 16.6539 136.219 -26.1366 -33.4443 -0.943162 0.332332 1 0.5 0 1
176 1 11.7654 47.5606 0 11.7654 47.5606 0 926.955 16.4766 -35.1678 -24.7852 -0.73458 -0.678522 1 0.5 0 1
177 1 26.409 11.9607 0 26.409 91.2267 0 382.817 369.951 7.37042 -28.1535 -0.397245 0.917712 1 0.5 0 1
178 1 60.5205 23.0876 0 -18.7455 102.354 0 270.891 259.526 -29.9674 61.2766 -0.266889 0.963727 1 0.5 0 1
179 1 4.73122 53.63 0 4.73122 -25.636 0 453.273 -381.46 -30.6018 -74.0653 -0.875481 -0.483252 1 0.5 0 1
180 1 77.6851 39.1824 0 77.6851 39.1824 0 416.505 175.649 159.403 -7.8208 -0.398162 0.917315 1 0.5 0 1
181 1 54.0119 25.478 0 54.0119 25.478 0 -202.089 -363.392 -64.3021 12.9831 -0.452342 -0.891844 1 0.5 0 1
182 1 14.708 27.0612 0 14.708 106.327 0 114.578 -25.2163 -27.5388 -54.3866 -0.605044 -0.796192 1 0.5 0 1
183 1 59.1863 51.4916 0 59.1863 -27.7744 0 332.381 239.485 51.5333 4.7167 0.988445 -0.151578 1 0.5 0 1
184 1 67.1961 39.1201 0 67.1961 39.1201 0 223.514 -721.808 59.9654 308.502 -0.453228 0.891395 1 0.5 0 1
185 1 15.3843 35.5382 0 15.3843 35.5382 0 433.748 81.7583 -46.801 59.5292 -0.987764 0.155955 1 0.5 0 1
186 1 22.3705 57.5647 0 22.3705 57.5647 0 323.891 -231.593 -123.089 103.39 -0.36143 0.932399 1 0.5 0 1
187 1 64.4006 30.4495 0 -14.8654 109.716 0 -139.311 -581.509 28.0469 143.084 -0.296621 0.954995 1 0.5 0 1
188 1 14.8107 62.967 0 94.0767 62.967 0 220.807 477.253 17.5208 26.1932 0.942416 -0.334442 1 0.5 0 1
189 1 19.7679 14.0502 0 19.7679 14.0502 0 250.881 -195.314 77.6346 22.6868 0.667869 0.744279 1 0.5 0 1
190 1 63.7524 74.9702 0 -15.5136 74.9702 0 -349.664 -494.001 -89.5593 -31.8559 -0.936703 -0.350126 1 0.5 0 1
191 1 41.2278 9.13234 0 120.494 9.13234 0 196.29 32.8114 99.0455 0.868571 0.960161 0.279447 1 0.5 0 1
192 1 64.8638 34.4585 0 64.8638 34.4585 0 -520.791 754.818 27.5436 -45.6684 0.0213047 -0.999773 1 0.5 0 1
193 1 52.863 4.76 0 -26.403 4.76 0 -254.049 -24.4563 -96.805 25.0756 -0.96805 0.250756 1 0.5 0 1
194 1 32.6797 66.163 0 32.6797 66.163 0 -609.578 764.044 88.2588 -209.606 -0.742248 -0.670126 1 0.5 0 1
195 1 56.0049 23.8197 0 56.0049 23.8197 0 -463.409 207.036 -26.7569 134.782 -0.0750019 0.997183 1 0.5 0 1
196 1 62.5974 37.166 0 62.5974 37.166 0 835.636 45.443 -59.7195 241.687 -0.588689 -0.80836 1 0.5 0 1
197 1 70.6928 58.9539 0 -8.5732 58.9539 0 119.014 316.925 -111.367 -193.634 -0.475901 -0.879499 1 0.5 0 1
198 1 77.1515 42.628 0 77.1515 42.628 0 -68.6844 -573.545 -104.678 -65.7968 -0.83851 -0.544886 1 0.5 0 1
199 1 69.2527 3.70195 0 -10.0133 3.70195 0 -28.504 278.66 33.7593 -45.5565 -0.410408 -0.911902 1 0.5 0 1
200 1 22.8553 69.298 0 22.8553 69.298 0 692.915 -71.9801 -29.3302 -40.5803 -0.0558055 0.998442 1 0.5 0 1
201 1 7.40443 57.2556 0 7.40443 -22.0104 0 -384.405 -737.135 -7.73278 73.0517 -0.561422 0.82753 1 0.5 0 1
202 1 57.6831 63.1891 0 -21.5829 -16.0769 0 -179.477 -826.572 -5.7425 -1.71046 -0.0377373 -0.999288 1 0.5 0 1
203 1 68.8577 76.5169 0 -10.4083 76.5169 0 -907.812 772.675 -72.0848 -39.6832 -0.740443 -0.672119 1 0.5 0 1
204 1 35.7167 13.9781 0 35.7167 13.9781 0 -616.976 -407.326 78.5493 -61.8871 0.785493 -0.618871 1 0.5 0 1
205 1 30.6391 58.8567 0 30.6391 58.8567 0 236.895 -88.5211 -18.7257 97.4143 -0.971194 -0.238292 1 0.5 0 1
206 1 1.19895 56.5314 0 1.19895 -22.7346 0 834.79 68.3668 -92.306 -24.0499 -0.738588 -0.674157 1 0.5 0 1
207 1 15.5462 68.1584 0 15.5462 68.1584 0 686.026 -812.998 88.8701 63.2092 0.941472 0.337092 1 0.5 0 1
208 1 36.9173 49.585 0 36.9173 49.585 0 -45.6506 -566.001 -47.3723 -17.9712 -0.0402864 -0.999188 1 0.5 0 1
209 1 39.5894 66.7795 0 39.5894 66.7795 0 -49.5789 418.763 -65.299 44.7053 -0.0686132 0.997643 1 0.5 0 1
210 1 69.0606 65.6917 0 -10.2054 65.6917 0 -371.067 278.314 -45.6566 -74.8045 -0.670749 -0.741684 1 0.5 0 1
211 1 64.5598 38.9693 0 64.5598 38.9693 0 -379.123 -180.573 -86.2258 -60.1414 0.973457 -0.228872 1 0.5 0 1
212 1 38.6182 70.4572 0 117.884 -8.8088 0 98.2755 -547.721 90.6109 -42.3043 0.906109 -0.423043 1 0.5 0 1
213 1 63.8034 60.0797 0 63.8034 60.0797 0 -538.647 -228.919 32.6332 58.9948 0.997225 -0.0744505 1 0.5 0 1
214 1 58.8305 22.8334 0 58.8305 102.099 0 -74.313 358.183 -76.7646 -88.7575 0.91835 -0.395768 1 0.5 0 1
215 1 21.0878 72.4622 0 21.0878 -6.8038 0 17.1688 -601.255 233.627 129.868 0.881266 0.47262 1 0.5 0 1
216 1 29.552 42.9 0 29.552 122.166 0 -244.667 286.334 -14.6245 -86.7566 0.0441656 0.999024 1 0.5 0 1
217 1 56.3217 75.4334 0 56.3217 -3.83258 0 -1075.65 -856.99 12.5346 4.59582 0.948403 -0.317067 1 0.5 0 1
218 1 45.831 46.4592 0 45.831 46.4592 0 314.707 102.321 40.1529 23.7923 0.969413 -0.245434 1 0.5 0 1
219 1 55.999 40.2194 0 55.999 40.2194 0 187.405 132.434 -140.645 129.537 0.790442 -0.612536 1 0.5 0 1
220 1 52.8122 63.8126 0 52.8122 -15.4534 0 401.485 -269.806 -94.0064 -34.0999 -0.940064 -0.340999 1 0.5 0 1
221 1 43.8643 9.2352 0 43.8643 88.5012 0 -221.165 346.764 -104.282 81.9094 -0.171474 0.985189 1 0.5 0 1
222 1 29.8062 46.8154 0 29.8062 -32.4506 0 227.961 41.1648 169.886 -22.4268 0.824241 -0.566239 1 0.5 0 1
223 1 76.4641 34.8468 0 -2.8019 34.8468 0 -199.504 -178.981 86.358 72.4853 0.0701915 0.997534 1 0.5 0 1
224 1 74.3566 59.7789 0 -4.90941 59.7789 0 151.946 9.74623 75.8252 -66.4786 0.967688 -0.252151 1 0.5 0 1
225 1 21.1804 54.3688 0 100.446 -24.8972 0 541.615 229.477 -64.0018 36.4037 0.999103 -0.0423396 1 0.5 0 1
226 1 30.699 70.1338 0 30.699 -9.13219 0 99.0552 -247.511 -86.6061 11.9356 -0.163562 -0.986533 1 0.5 0 1
227 1 4.85559 32.6545 0 84.1216 32.6545 0 -481.643 459.736 95.2796 -106.23 -0.092639 0.9957 1 0.5 0 1
228 1 63.649 69.2391 0 -15.617 69.2391 0 -43.6402 320.377 -41.1174 12.6774 -0.955414 -0.29527 1 0.5 0 1
229 1 55.7879 35.745 0 55.7879 35.745 0 -599.071 -160.689 59.7131 98.9625 0.741154 0.671335 1 0.5 0 1
230 1 56.3216 34.1758 0 56.3216 113.442 0 24.9774 -309.179 -52.3734 27.025 0.202851 0.97921 1 0.5 0 1
231 1 69.705 1.12405 0 69.705 80.39 0 293.591 -289.446 74.0683 85.9858 -0.336775 0.941585 1 0.5 0 1
232 1 51.8332 34.9347 0 51.8332 -44.3313 0 -126.507 643.178 70.0221 -118.551 0.762305 -0.647218 1 0.5 0 1
233 1 9.91022 42.3399 0 9.91022 42.3399 0 574.682 443.282 157.966 74.9157 -0.864169 -0.503202 1 0.5 0 1
234 1 28.2854 60.2741 0 28.2854 -18.9919 0 778.969 -82.6399 -90.9073 63.5918 -0.0010247 0.999999 1 0.5 0 1
235 1 23.1685 63.9062 0 23.1685 63.9062 0 -492.109 -272.293 -69.9752 61.4638 -0.366111 0.930571 1 0.5 0 1
236 1 15.9635 74.5311 0 95.2295 74.5311 0 -10.1064 -242.406 53.8528 -189.299 0.995477 -0.0950008 1 0.5 0 1
237 1 54.9284 25.139 0 54.9284 25.139 0 118.84 38.0286 -41.5536 4.20555 0.925503 -0.378741 1 0.5 0 1
238 1 58.3736 76.0089 0 58.3736 76.0089 0 440.457 -26.1492 -44.1393 106.257 0.530212 0.847865 1 0.5 0 1
239 1 7.10274 38.7493 0 86.3687 38.7493 0 -452.123 -86.5549 133.14 1.23332 0.998064 0.0621876 1 0.5 0 1
240 1 39.9668 27.4052 0 39.9668 27.4052 0 -1025.66 320.54 -24.007 -37.9134 0.7162 -0.697895 1 0.5 0 1
241 1 51.2153 35.7943 0 51.2153 35.7943 0 423.629 -39.1162 42.6607 23.5215 0.407382 -0.913258 1 0.5 0 1
242 1 77.8856 62.1704 0 77.8856 -17.0956 0 -144.894 -355.32 -99.2263 67.1331 -0.137187 -0.990545 1 0.5 0 1
243 1 68.6681 2.40429 0 -10.5979 81.6703 0 -216.663 -54.1629 -128.54 60.6657 -0.482809 0.875726 1 0.5 0 1
244 1 47.1029 67.127 0 47.1029 67.127 0 414.85 216.181 48.6794 113.096 0.14102 0.990007 1 0.5 0 1
245 1 58.3109 45.9848 0 58.3109 45.9848 0 361.263 487.234 -13.9651 -97.557 -0.140625 -0.990063 1 0.5 0 1
246 1 52.8532 38.1769 0 52.8532 38.1769 0 614.218 213.512 -28.873 -65.3641 0.779532 -0.626363 1 0.5 0 1
247 1 68.9728 50.8894 0 68.9728 -28.3766 0 74.0615 365.912 75.278 177.272 -0.931212 -0.364479 1 0.5 0 1
248 1 49.0807 25.1161 0 -30.1853 104.382 0 334.804 -408.2 -61.4983 55.1419 -0.598506 0.801118 1 0.5 0 1
249 1 67.476 19.3305 0 67.476 19.3305 0 894.823 92.1558 99.5845 -68.8109 0.947039 0.321119 1 0.5 0 1
250 1 15.5147 63.8101 0 94.7807 63.8101 0 76.1276 -616.431 -132.147 184.123 0.99057 -0.137005 1 0.5 0 1
251 1 38.9147 55.9207 0 38.9147 135.187 0 281.59 -62.0167 -18.0206 98.3629 -0.180206 0.983629 1 0.5 0 1
252 1 23.1199 65.6768 0 23.1199 65.6768 0 -930.412 885.783 42.1412 47.3943 0.100903 0.994896 1 0.5 0 1
253 1 24.3853 57.8413 0 24.3853 57.8413 0 -395.553 318.484 -17.0959 -99.397 0.633477 0.773761 1 0.5 0 1
254 1 45.072 23.9824 0 45.072 103.248 0 -214.124 55.6053 11.5729 61.6323 0.503149 0.8642 1 0.5 0 1
255 1 5.60946 31.0189 0 84.8755 110.285 0 -375.35 1012.91 124.67 128.64 -0.567984 0.823039 1 0.5 0 1
256 1 72.5553 39.5993 0 -6.71065 39.5993 0 453.492 -0.866976 -62.0086 51.0359 0.367881 -0.929873 1 0.5 0 1
257 1 10.4019 34.5407 0 10.4019 113.807 0 -23.2949 1161.12 32.4441 -152.54 -0.519568 0.854429 1 0.5 0 1
258 1 39.7431 50.7655 0 39.7431 -28.5005 0 -157.811 -96.8329 -26.7343 -96.3601 -0.267343 -0.963601 1 0.5 0 1
259 1 21.4566 37.7011 0 100.723 37.7011 0 -552.984 94.2434 43.8001 75.1552 0.404008 0.914755 1 0.5 0 1
260 1 23.0217 19.715 0 102.288 19.715 0 75.7825 -579.725 -68.8336 -33.4641 0.648349 -0.761343 1 0.5 0 1
261 1 76.783 77.6242 0 -2.48298 -1.64182 0 -1022.49 -251.336 -99.931 3.71315 -0.99931 0.0371315 1 0.5 0 1
262 1 69.2298 74.4818 0 148.496 -4.7842 0 -497.218 23.773 -68.9633 -9.81046 0.66578 -0.746148 1 0.5 0 1
263 1 34.0175 73.8765 0 -45.2485 -5.38952 0 161.574 209.686 -98.514 -17.1755 -0.98514 -0.171755 1 0.5 0 1
264 1 32.7251 23.9058 0 111.991 23.9058 0 -42.0697 -432.702 87.48 -48.4484 0.8748 -0.484484 1 0.5 0 1
265 1 33.6682 14.3991 0 33.6682 93.6651 0 242.316 570.279 60.6757 79.4888 0.606757 0.794888 1 0.5 0 1
266 1 58.128 48.883 0 58.128 48.883 0 -583.054 -309.123 -33.9139 -42.8442 0.39555 -0.918444 1 0.5 0 1
267 1 76.973 69.6741 0 -2.29295 -9.59188 0 303.852 238.531 -70.089 -71.327 -0.70089 -0.71327 1 0.5 0 1
268 1 67.0631 58.6099 0 67.0631 58.6099 0 46.7281 -62.8757 -9.34117 62.8999 0.524372 -0.851489 1 0.5 0 1
269 1 53.4611 19.0073 0 132.727 19.0073 0 113.063 170.059 -17.7284 16.4668 -0.37567 0.926753 1 0.5 0 1
270 1 41.4232 67.5957 0 120.689 -11.6703 0 -418.16 -738.583 19.3422 -112.51 0.495976 -0.868336 1 0.5 0 1
271 1 53.0647 24.7936 0 53.0647 24.7936 0 354.126 -592.052 65.6631 -133.441 0.973926 -0.226867 1 0.5 0 1
272 1 54.8602 35.389 0 54.8602 35.389 0 742.713 998.493 -66.3887 -25.4914 0.995005 0.0998211 1 0.5 0 1
273 1 61.8927 46.0526 0 61.8927 46.0526 0 145.729 422.919 48.5522 28.8708 0.554519 -0.832171 1 0.5 0 1
274 1 16.871 52.5972 0 16.871 -26.6688 0 302.939 132.258 -64.5893 8.05571 -0.8981 -0.439792 1 0.5 0 1
275 1 8.31596 75.5694 0 87.582 -3.69656 0 164.178 -794.116 18.7057 -70.3621 0.395109 -0.918634 1 0.5 0 1
276 1 61.4229 41.348 0 61.4229 41.348 0 267.846 -413.305 -122.726 -10.6995 0.696888 -0.71718 1 0.5 0 1
277 1 41.524 25.9789 0 -37.742 25.9789 0 353.537 265.273 -83.5468 14.5507 -0.842412 -0.538834 1 0.5 0 1
278 1 61.7515 9.06958 0 -17.5145 88.3356 0 -400.344 -435.286 -94.1185 -33.789 -0.941185 -0.33789 1 0.5 0 1
279 1 24.1759 23.5506 0 103.442 23.5506 0 44.4381 -898.295 86.1562 -71.6335 0.972024 -0.234884 1 0.5 0 1
280 1 52.7621 59.4995 0 52.7621 -19.7665 0 -749.419 -185.843 -60.6464 -63.6447 -0.280962 -0.959719 1 0.5 0 1
281 1 69.1029 53.8337 0 69.1029 53.8337 0 -164.227 48.0501 -146.336 -39.205 0.566837 -0.82383 1 0.5 0 1
282 1 47.0184 48.2431 0 47.0184 -31.0229 0 547.21 255.979 77.5174 -63.1748 0.775174 -0.631748 1 0.5 0 1
283 1 73.9844 28.0114 0 -5.28156 107.277 0 622.616 628.098 -44.6193 -25.12 0.99889 -0.0470948 1 0.5 0 1
284 1 68.3428 18.8889 0 -10.9232 98.1549 0 109.82 -720.776 232.315 -65.0359 0.482755 0.875756 1 0.5 0 1
285 1 70.7592 31.5563 0 70.7592 31.5563 0 -144.923 178.505 -30.2841 29.6604 0.917742 0.397176 1 0.5 0 1