ITEM: TIMESTEP
50000
ITEM: NUMBER OF ATOMS
4000
ITEM: BOX BOUNDS pp pp pp
0.0000000000000000e+00 7.9266000000000005e+01
0.0000000000000000e+00 7.9266000000000005e+01
-5.0000000000000000e-01 5.0000000000000000e-01
ITEM: ATOMS id type x y z xu yu zu vx vy fx fy mux muy mu radius omegaz mass
1 1 47.4036 57.0542 0 47.4036 57.0542 0 -601.551 -271.461 70.8676 -30.787 0.831573 0.555415 1 0.5 0 1
2 1 37.4117 4.38171 0 37.4117 4.38171 0 106.921 198.336 8.40389 58.1475 -0.638733 -0.769428 1 0.5 0 1
3 1 37.2752 18.6327 0 37.2752 18.6327 0 325.058 248.398 -49.3804 -12.1203 0.13973 -0.99019 1 0.5 0 1
4 1 58.4976 14.2716 0 58.4976 93.5376 0 511.133 -132.514 -0.207151 120.086 -0.10644 0.994319 1 0.5 0 1
5 1 52.6118 37.4494 0 52.6118 37.4494 0 1300.91 573.629 -109.307 -0.749524 -0.111891 -0.99372 1 0.5 0 1
6 1 47.0561 21.0227 0 47.0561 21.0227 0 332.092 -566.913 -84.5051 45.4164 -0.931727 0.36316 1 0.5 0 1
7 1 64.59 41.6443 0 64.59 41.6443 0 -255.59 308.953 -177.736 -7.98841 0.966898 0.255163 1 0.5 0 1
8 1 34.0015 11.2488 0 34.0015 11.2488 0 741.2 172.46 -28.4685 42.9502 -0.406279 -0.913749 1 0.5 0 1
9 1 28.912 32.8217 0 28.912 32.8217 0 135.305 -656.731 -57.5494 -78.5537 0.475746 -0.879583 1 0.5 0 1
10 1 67.1334 67.9674 0 67.1334 67.9674 0 215.291 272.734 -17.3279 124.011 0.207508 -0.978233 1 0.5 0 1
11 1 74.5712 54.207 0 -4.69485 54.207 0 -243.947 104.408 41.8399 -4.86433 -0.999666 0.0258579 1 0.5 0 1
12 1 51.9427 58.3994 0 51.9427 58.3994 0 178.269 53.27 26.6298 47.8909 -0.0285379 0.999593 1 0.5 0 1
13 1 31.1107 61.8102 0 31.1107 61.8102 0 17.6775 -652.992 -18.6461 33.2172 -0.102847 -0.994697 1 0.5 0 1
14 1 73.6206 58.7575 0 -5.64537 58.7575 0 -117.963 719.343 -29.1587 21.4794 -0.992114 -0.125335 1 0.5 0 1
15 1 52.0016 59.4248 0 52.0016 59.4248 0 -184.563 -76.5074 12.8013 12.1252 -0.940386 0.340108 1 0.5 0 1
16 1 63.1078 11.6817 0 -16.1582 11.6817 0 -462.032 723.549 -95.1782 -30.6776 -0.951782 -0.306776 1 0.5 0 1
17 1 49.7381 39.3494 0 49.7381 39.3494 0 61.6422 -49.5825 33.361 55.0128 -0.375743 0.926724 1 0.5 0 1
18 1 41.3511 32.9388 0 41.3511 32.9388 0 -830.739 -148.216 9.62337 -99.5359 0.0962337 -0.995359 1 0.5 0 1
19 1 33.2152 61.7602 0 33.2152 61.7602 0 110.269 -214.449 39.3848 -87.953 0.423532 -0.905881 1 0.5 0 1
20 1 18.9096 50.4563 0 18.9096 50.4563 0 -148.159 -318.313 7.53246 54.2034 0.345859 0.938286 1 0.5 0 1
21 1 55.2751 62.5694 0 55.2751 -16.6966 0 166.037 699.434 -105.257 -39.4256 -0.689406 -0.724375 1 0.5 0 1
22 1 35.7506 33.8043 0 35.7506 33.8043 0 235.801 174.363 94.7306 32.0331 0.947306 0.320331 1 0.5 0 1
23 1 29.506 19.3358 0 29.506 19.3358 0 293.652 106.674 -10.794 -28.466 -0.266318 -0.963885 1 0.5 0 1
24 1 64.5367 72.5362 0 64.5367 -6.7298 0 -104.484 -456.364 52.8147 -56.8187 0.729026 -0.684486 1 0.5 0 1
25 1 4.38321 77.6748 0 4.38321 -1.59118 0 -34.0872 362.635 -147.592 -57.0703 -0.984658 -0.174497 1 0.5 0 1
26 1 25.7674 74.5885 0 25.7674 -4.67747 0 -332.031 136.502 -34.1024 137.664 -0.255215 -0.966884 1 0.5 0 1
27 1 53.4448 23.7375 0 53.4448 23.7375 0 -1374.22 -165.071 -96.7024 80.6684 -0.552931 0.833227 1 0.5 0 1
28 1 30.6923 39.3512 0 30.6923 39.3512 0 -98.9015 -252.318 -65.8734 -49.4354 -0.784352 0.620316 1 0.5 0 1
29 1 0.408936 29.3682 0 0.408936 29.3682 0 1141.5 -284.972 69.9182 28.6221 0.392651 0.919687 1 0.5 0 1
30 1 40.3817 19.1087 0 40.3817 98.3747 0 856.243 -572.116 -62.1411 -118.308 -0.125932 0.992039 1 0.5 0 1
31 1 27.6346 55.2283 0 27.6346 55.2283 0 194.373 -406.912 -0.158479 68.4479 0.176905 -0.984228 1 0.5 0 1
32 1 35.7418 35.5308 0 35.7418 35.5308 0 -125.517 -365.221 14.3443 -0.612796 0.415429 0.909626 1 0.5 0 1
33 1 37.6075 62.6653 0 37.6075 -16.6007 0 189.174 -234.933 13.981 55.4582 -0.53078 -0.847509 1 0.5 0 1
34 1 75.9262 34.5074 0 75.9262 34.5074 0 103.091 -778.62 -43.7322 -29.4784 0.998342 -0.0575613 1 0.5 0 1
35 1 20.5334 78.4264 0 20.5334 78.4264 0 -212.234 -155.532 37.2018 99.5403 -0.918763 0.394808 1 0.5 0 1
36 1 44.2749 23.7144 0 44.2749 23.7144 0 -6.50958 481.343 53.1017 -48.8848 0.473451 -0.88082 1 0.5 0 1
37 1 69.5997 33.7994 0 69.5997 33.7994 0 17.6876 93.7927 -2.61897 67.6798 -0.152836 0.988252 1 0.5 0 1
38 1 20.4292 31.804 0 99.6952 31.804 0 -22.3955 27.5318 -43.0514 3.54231 0.816817 0.576897 1 0.5 0 1
39 1 18.566 18.6646 0 18.566 18.6646 0 321.776 -159.985 -7.06688 -38.5942 -0.325078 -0.945687 1 0.5 0 1
40 1 75.8715 69.9775 0 -3.39446 -9.28851 0 -358.174 -629.543 79.9053 -34.5169 -0.621739 -0.783224 1 0.5 0 1
41 1 57.5216 66.0909 0 57.5216 66.0909 0 177.29 -886.839 -11.4466 -56.4885 0.505211 -0.862996 1 0.5 0 1
42 1 18.0645 77.2229 0 18.0645 77.2229 0 144.962 16.2295 -91.5125 -4.27651 -0.995865 -0.0908496 1 0.5 0 1
43 1 13.1621 65.0276 0 13.1621 65.0276 0 -234.489 665.924 -74.176 59.5465 -0.807619 0.589705 1 0.5 0 1
44 1 74.1229 78.3406 0 74.1229 78.3406 0 -56.5852 299.972 -59.6719 -7.63198 -0.898526 0.438921 1 0.5 0 1
45 1 15.9805 64.2385 0 15.9805 64.2385 0 -125.305 54.7938 -28.0276 26.8462 -0.450815 -0.892617 1 0.5 0 1
46 1 21.7 18.6782 0 21.7 18.6782 0 -1298.22 504.567 15.4497 95.5189 -0.910669 0.413137 1 0.5 0 1
47 1 10.0929 8.72334 0 10.0929 8.72334 0 -33.8398 -378.066 24.9561 -14.6828 -0.0700749 -0.997542 1 0.5 0 1
48 1 53.7229 52.9943 0 53.7229 52.9943 0 -229.726 -99.0065 -97.0513 -31.5918 -0.980896 0.194532 1 0.5 0 1
49 1 68.5001 3.14802 0 68.5001 82.414 0 401.087 -123.897 4.60318 75.907 0.401022 0.916068 1 0.5 0 1
50 1 65.4256 30.1628 0 65.4256 30.1628 0 538.174 561.05 -11.079 -48.2797 0.49767 -0.867366 1 0.5 0 1
51 1 14.4411 12.2969 0 14.4411 12.2969 0 485.179 292.576 83.9845 -6.7952 -0.667324 -0.744768 1 0.5 0 1
52 1 73.1323 19.1436 0 73.1323 19.1436 0 412.633 349.692 -7.65602 -38.7742 0.992658 0.120958 1 0.5 0 1
53 1 49.6034 61.0142 0 49.6034 61.0142 0 -628.732 304.53 22.8739 39.696 0.0575361 0.998343 1 0.5 0 1
54 1 29.7472 34.4573 0 29.7472 34.4573 0 73.1692 -474.979 74.1105 -53.9003 0.996713 0.0810118 1 0.5 0 1
55 1 6.70107 5.18946 0 85.9671 84.4555 0 28.0484 144.182 133.95 -16.0771 0.964204 0.26516 1 0.5 0 1
56 1 38.3725 52.2057 0 38.3725 52.2057 0 84.3819 -235.794 -55.1786 -24.3386 -0.588943 -0.808175 1 0.5 0 1
57 1 22.019 72.5138 0 22.019 72.5138 0 868.299 -558.359 -40.4784 18.1649 0.044766 0.998998 1 0.5 0 1
58 1 18.6163 15.97 0 18.6163 15.97 0 -427.34 160.609 -116.369 -6.16963 -0.910393 0.413745 1 0.5 0 1
59 1 53.6999 12.3435 0 53.6999 12.3435 0 150.553 -185.304 -1.77343 50.2046 0.371482 0.92844 1 0.5 0 1
60 1 55.4599 39.4595 0 55.4599 39.4595 0 -818.263 -240.609 -25.5534 -95.0148 -0.315744 -0.948845 1 0.5 0 1
61 1 55.1981 42.6748 0 55.1981 42.6748 0 630.533 -352.122 68.5616 -72.7964 0.685616 -0.727964 1 0.5 0 1
62 1 40.2471 35.6288 0 40.2471 35.6288 0 883.353 49.6304 -9.79602 6.56508 -0.508342 -0.861155 1 0.5 0 1
63 1 68.158 67.9163 0 -11.108 67.9163 0 581.607 -183.773 122.145 75.7546 -0.702426 -0.711757 1 0.5 0 1
64 1 52.9736 35.3888 0 52.9736 35.3888 0 -151.661 -800.254 124.98 59.5137 0.326679 0.945136 1 0.5 0 1
65 1 69.3888 59.7713 0 69.3888 59.7713 0 250.178 169.416 23.0172 -36.2327 0.148429 0.988923 1 0.5 0 1
66 1 57.5142 69.7281 0 57.5142 69.7281 0 45.6563 709.619 -11.7994 25.4791 0.997209 0.0746595 1 0.5 0 1
67 1 37.8727 17.7879 0 37.8727 17.7879 0 -84.3355 307.396 -5.59043 -53.3968 0.973308 0.229501 1 0.5 0 1
68 1 27.3323 43.3855 0 27.3323 43.3855 0 319.475 23.1462 87.9718 -22.519 0.985436 -0.170044 1 0.5 0 1
69 1 49.6483 74.1192 0 49.6483 74.1192 0 -848.894 334.643 -9.57482 -118.527 -0.948569 0.31657 1 0.5 0 1
70 1 22.6784 71.2287 0 22.6784 71.2287 0 503.301 -661.203 59.0156 108.005 -0.19805 0.980192 1 0.5 0 1
71 1 42.5917 46.5405 0 42.5917 46.5405 0 263.183 719.799 -11.8858 -0.116157 -0.978105 0.208113 1 0.5 0 1
72 1 18.9078 64.7825 0 18.9078 64.7825 0 -185.688 -25.118 20.7387 16.6982 -0.9739 0.226979 1 0.5 0 1
73 1 76.4424 35.4027 0 76.4424 35.4027 0 -151.083 -12.013 135.121 -107.034 -0.414916 -0.90986 1 0.5 0 1
74 1 58.9001 65.7282 0 58.9001 65.7282 0 -981.183 182.767 61.064 -22.603 0.95115 -0.308729 1 0.5 0 1
75 1 5.78561 38.5086 0 5.78561 38.5086 0 -808.408 548.445 259.485 -175.509 -0.993158 -0.116775 1 0.5 0 1
76 1 15.9877 27.5671 0 15.9877 27.5671 0 47.7417 -361.053 -16.5939 75.8119 -0.977071 0.212913 1 0.5 0 1
77 1 15.1984 10.0833 0 15.1984 10.0833 0 98.4928 -47.6887 -26.009 -74.7935 0.466686 0.884423 1 0.5 0 1
78 1 38.8579 45.1277 0 38.8579 45.1277 0 658.812 -469.851 -32.038 45.9097 -0.994755 -0.102285 1 0.5 0 1
79 1 53.4337 2.10711 0 53.4337 81.3731 0 -382.831 -35.1138 -72.5498 25.2155 -0.706283 0.707929 1 0.5 0 1
80 1 41.7363 62.644 0 41.7363 -16.622 0 -498.481 -132.659 11.755 -40.9269 0.0805297 -0.996752 1 0.5 0 1
81 1 6.5757 31.5797 0 85.8417 31.5797 0 432.358 274.328 10.5392 -78.5289 0.886104 0.463487 1 0.5 0 1
82 1 27.8299 28.0432 0 27.8299 28.0432 0 -143.96 309.379 -57.4678 34.3607 -0.330977 0.943639 1 0.5 0 1
83 1 39.8642 37.7587 0 39.8642 37.7587 0 -522.627 252.4 73.2184 68.1107 0.732184 0.681107 1 0.5 0 1
84 1 78.0046 40.902 0 -1.2614 40.902 0 -480.242 618.655 51.8926 53.4169 -0.926653 0.375918 1 0.5 0 1
85 1 34.9717 5.83647 0 34.9717 5.83647 0 732.337 542.114 -48.9303 -63.8036 -0.52653 -0.850157 1 0.5 0 1
86 1 37.5101 6.58926 0 37.5101 6.58926 0 571.512 259.469 -10.7624 -50.2234 -0.904892 -0.425641 1 0.5 0 1
87 1 49.6029 31.8473 0 49.6029 31.8473 0 -220.633 220.721 51.5442 11.3277 0.268963 0.96315 1 0.5 0 1
88 1 61.5872 19.6337 0 61.5872 19.6337 0 456.093 16.2918 2.39188 14.5592 -0.107108 0.994247 1 0.5 0 1
89 1 20.8615 54.8831 0 20.8615 54.8831 0 147.301 -848.522 -34.8504 -19.5383 -0.188066 0.982156 1 0.5 0 1
90 1 27.4263 48.7235 0 27.4263 48.7235 0 -196.692 -148.238 25.4274 38.4446 -0.286229 -0.958161 1 0.5 0 1
91 1 14.1134 73.3049 0 14.1134 -5.96113 0 401.194 137.256 -43.1706 -10.3961 -0.113624 -0.993524 1 0.5 0 1
92 1 35.2983 47.9066 0 35.2983 47.9066 0 -328.895 -210.514 -80.3726 59.4999 -0.803726 0.594999 1 0.5 0 1
93 1 9.97753 56.2182 0 9.97753 56.2182 0 83.5772 -428.015 -88.9907 -17.2983 -0.817849 0.575433 1 0.5 0 1
94 1 76.953 18.47 0 76.953 18.47 0 37.3648 94.9607 27.9119 38.2876 0.533004 0.846112 1 0.5 0 1
95 1 63.6272 41.2742 0 63.6272 41.2742 0 -521.624 231.935 148.16 -63.4842 0.99992 0.0126213 1 0.5 0 1
96 1 51.8722 35.758 0 51.8722 35.758 0 280.017 285.11 65.3414 66.056 0.671614 -0.740901 1 0.5 0 1
97 1 61.752 30.4856 0 61.752 30.4856 0 -243.227 -350.858 130.165 73.9729 -0.397238 -0.917716 1 0.5 0 1
98 1 75.6056 68.9988 0 -3.66039 68.9988 0 45.0261 1155.29 -113.876 -51.9911 -0.757739 0.652558 1 0.5 0 1
99 1 66.0785 23.0706 0 66.0785 23.0706 0 422.275 345.007 -97.1605 -52.8018 -0.988265 -0.152749 1 0.5 0 1
100 1 71.1193 37.567 0 71.1193 37.567 0 -33.331 -402.771 34.3022 -7.18794 0.953667 -0.300863 1 0.5 0 1
101 1 46.3902 56.0464 0 46.3902 56.0464 0 85.3809 533.149 -31.1628 -68.5505 -0.305274 -0.952265 1 0.5 0 1
102 1 11.2985 33.373 0 11.2985 33.373 0 1457.54 -116.109 -86.0047 -7.96221 -0.821776 0.56981 1 0.5 0 1
103 1 24.7522 51.2853 0 24.7522 51.2853 0 -1088.68 -594.462 -78.0951 25.293 -0.728902 0.684618 1 0.5 0 1
104 1 42.5705 12.8784 0 42.5705 92.1444 0 -527.317 543.583 -11.0328 54.1181 0.727328 0.68629 1 0.5 0 1
105 1 74.9456 6.25711 0 -4.32039 6.25711 0 186.808 -221.782 -11.0392 4.28022 -0.863656 -0.504081 1 0.5 0 1
106 1 45.8349 47.3341 0 45.8349 47.3341 0 -80.6313 -45.9525 78.9983 -5.70733 -0.968119 0.250491 1 0.5 0 1
107 1 62.1258 25.8728 0 62.1258 25.8728 0 216.144 -334.729 -266.883 292.119 -0.590402 0.807109 1 0.5 0 1
108 1 12.435 6.14568 0 12.435 85.4117 0 415.977 -340.121 -76.8911 183.603 -0.622774 0.782402 1 0.5 0 1
109 1 5.3575 48.7715 0 5.3575 48.7715 0 -318.93 1344.43 -61.9849 56.8362 -0.622219 0.782843 1 0.5 0 1
110 1 6.11719 39.4745 0 6.11719 39.4745 0 654.621 507.614 62.1548 167.85 -0.940543 0.339675 1 0.5 0 1
111 1 5.46603 31.6996 0 5.46603 31.6996 0 -673.236 -548.827 83.8307 -69.3182 -0.169178 -0.985586 1 0.5 0 1
112 1 34.7191 49.4627 0 34.7191 49.4627 0 -44.9251 130.772 -26.4191 -15.1314 -0.861424 -0.507887 1 0.5 0 1
113 1 67.2138 70.1118 0 -12.0522 -9.15423 0 260.601 500.719 4.93546 50.7295 -0.142561 -0.989786 1 0.5 0 1
114 1 20.1553 29.4389 0 20.1553 29.4389 0 -565.741 -547.525 -96.6795 25.5552 -0.966795 0.255552 1 0.5 0 1
115 1 16.0766 78.594 0 16.0766 -0.671981 0 311.928 213.756 -57.6188 -81.7317 -0.576188 -0.817317 1 0.5 0 1
116 1 19.7788 20.465 0 19.7788 20.465 0 337.374 -444.126 -14.2215 24.5835 -0.640506 -0.767953 1 0.5 0 1
117 1 62.695 46.8583 0 62.695 46.8583 0 135.713 539.381 34.2399 48.3022 0.649212 0.760608 1 0.5 0 1
118 1 57.107 50.9581 0 57.107 50.9581 0 -387.315 667.905 -9.5431 -99.5436 -0.095431 -0.995436 1 0.5 0 1
119 1 13.7674 8.84728 0 13.7674 8.84728 0 465.659 536.6 -44.4125 -88.9465 -0.992304 -0.123828 1 0.5 0 1
120 1 62.2856 26.8801 0 62.2856 26.8801 0 -1.76627 123.255 -97.275 -84.2457 0.998847 0.0480148 1 0.5 0 1
121 1 69.1175 23.3308 0 -10.1485 23.3308 0 817.553 438.688 -53.7834 4.31557 -0.997267 -0.0738818 1 0.5 0 1
122 1 48.369 46.527 0 48.369 46.527 0 208.647 417.737 26.052 -30.2154 -0.791964 0.610567 1 0.5 0 1
123 1 30.3692 31.5978 0 30.3692 31.5978 0 284.648 -30.6526 165.979 -43.8424 -0.884866 0.465846 1 0.5 0 1
124 1 46.358 3.57302 0 46.358 3.57302 0 142.018 -33.1963 -7.96224 40.3453 0.933755 0.357912 1 0.5 0 1
125 1 33.6397 25.2753 0 33.6397 25.2753 0 -637.276 27.9876 34.5075 -57.003 0.798749 -0.601665 1 0.5 0 1
126 1 65.7167 64.9338 0 65.7167 64.9338 0 156.957 783.984 144.596 112.097 0.414821 0.909903 1 0.5 0 1
127 1 55.5776 77.9971 0 55.5776 77.9971 0 423.082 47.4067 38.4683 106.275 0.236639 0.971598 1 0.5 0 1
128 1 72.7589 54.4543 0 -6.50713 54.4543 0 -334.02 412.201 -51.9088 -15.4831 -0.879298 -0.476272 1 0.5 0 1
129 1 47.3989 3.52625 0 47.3989 3.52625 0 48.5488 -565.553 97.403 -52.525 0.32174 -0.946828 1 0.5 0 1
130 1 49.0066 70.1851 0 49.0066 -9.08091 0 -402.244 -397.593 -23.382 -37.9644 0.11224 -0.993681 1 0.5 0 1
131 1 15.3609 58.8926 0 15.3609 58.8926 0 -345.969 -99.0783 -89.501 43.3079 -0.989988 0.141152 1 0.5 0 1
132 1 28.4787 3.32881 0 28.4787 82.5948 0 -219.607 -240.26 -129.018 -18.893 -0.936656 0.350251 1 0.5 0 1
133 1 69.2835 3.89772 0 69.2835 83.1637 0 -55.5536 -18.8983 -41.327 139.474 0.896463 0.443118 1 0.5 0 1
134 1 72.5493 63.1426 0 72.5493 63.1426 0 487.176 153.154 -29.985 -14.3639 -0.453039 0.891491 1 0.5 0 1
135 1 79.2017 76.487 0 79.2017 76.487 0 294.632 687.71 -50.7514 21.2051 -0.864156 0.503224 1 0.5 0 1
136 1 9.76732 73.4944 0 9.76732 73.4944 0 -194.182 -76.0404 51.0739 69.407 0.503649 0.863908 1 0.5 0 1
137 1 8.53205 32.8386 0 87.798 32.8386 0 -53.422 -576.025 1.09942 27.1919 0.947859 0.31869 1 0.5 0 1
138 1 53.453 31.2543 0 53.453 31.2543 0 -759.25 243.442 -48.3735 -6.39361 -0.93841 0.345523 1 0.5 0 1
139 1 48.4064 7.62549 0 48.4064 7.62549 0 102.805 300.877 -89.0564 -45.4858 -0.890564 -0.454858 1 0.5 0 1
140 1 26.0665 17.2734 0 26.0665 17.2734 0 884.628 70.3974 -56.3361 -22.5911 0.16595 -0.986134 1 0.5 0 1
141 1 43.784 41.8747 0 43.784 41.8747 0 -1496.37 609.528 -66.3727 -22.5856 -0.990055 -0.140679 1 0.5 0 1
142 1 33.5587 52.628 0 33.5587 52.628 0 565.814 -1144.87 24.9869 125.584 -0.753964 0.656916 1 0.5 0 1
143 1 24.3049 62.3289 0 24.3049 62.3289 0 989.877 -280.821 -38.2375 -41.2341 0.493011 0.870023 1 0.5 0 1
144 1 57.3723 19.9519 0 57.3723 19.9519 0 227.238 -415.27 27.3274 -92.6205 -0.133007 -0.991115 1 0.5 0 1
145 1 73.7003 56.6997 0 73.7003 56.6997 0 -1011.66 -1022.29 82.5425 56.3149 0.0151707 0.999885 1 0.5 0 1
146 1 31.6691 11.8882 0 31.6691 11.8882 0 489.922 -547.238 -77.0992 17.7115 -0.789674 -0.613527 1 0.5 0 1
147 1 76.5999 32.3707 0 76.5999 32.3707 0 221.548 -443.031 33.7666 -143.137 0.598014 -0.801486 1 0.5 0 1
148 1 76.9538 20.8193 0 76.9538 20.8193 0 841.68 -430.097 -11.2485 31.3307 0.0958219 -0.995398 1 0.5 0 1
149 1 57.801 10.5588 0 57.801 89.8248 0 -52.3451 45.7376 134.73 79.8128 0.744433 0.667698 1 0.5 0 1
150 1 9.78745 22.4549 0 9.78745 22.4549 0 -471.477 -565.774 -8.55562 175.829 -0.720153 0.693815 1 0.5 0 1
151 1 66.3751 3.47605 0 66.3751 3.47605 0 152.485 115.612 -77.9922 -90.2855 0.576651 -0.816991 1 0.5 0 1
152 1 6.40455 12.5547 0 6.40455 91.8207 0 581.439 153.032 -5.26027 125.449 0.219512 0.97561 1 0.5 0 1
153 1 57.6404 61.2404 0 57.6404 61.2404 0 -402.554 206.733 -33.0733 -17.5411 0.949897 -0.312564 1 0.5 0 1
154 1 76.3345 60.9795 0 -2.93149 60.9795 0 -227.71 596.143 138.708 11.6647 0.032386 -0.999475 1 0.5 0 1
155 1 70.9745 4.15847 0 -8.2915 4.15847 0 274.699 224.682 11.1207 -10.7036 -0.629232 -0.777218 1 0.5 0 1
156 1 72.376 42.4151 0 72.376 42.4151 0 -86.6571 723.194 1.56813 -9.8296 0.680685 0.732576 1 0.5 0 1
157 1 3.69357 12.8478 0 3.69357 12.8478 0 -589.196 -450.457 19.9244 -0.680898 -0.845695 -0.533667 1 0.5 0 1
158 1 2.95414 33.1668 0 2.95414 33.1668 0 462.455 -829.627 -63.9317 -27.0481 -0.967489 -0.252915 1 0.5 0 1
159 1 71.8343 54.0077 0 71.8343 54.0077 0 311.824 -142.122 136.842 69.0067 0.587547 -0.80919 1 0.5 0 1
160 1 19.6416 35.9448 0 19.6416 35.9448 0 113.345 -671.162 -24.4958 -96.3001 0.397532 -0.917588 1 0.5 0 1
161 1 8.22188 36.3951 0 8.22188 36.3951 0 -109.674 565.007 -48.8588 19.3064 -0.860662 0.509178 1 0.5 0 1
162 1 14.5326 61.9609 0 14.5326 61.9609 0 -464.787 242.993 -3.16783 -13.173 -0.754857 -0.655889 1 0.5 0 1
163 1 59.8158 43.458 0 59.8158 43.458 0 64.6462 -61.0377 69.108 -28.2515 0.982818 -0.184579 1 0.5 0 1
164 1 26.4186 58.9682 0 26.4186 58.9682 0 33.7639 425.209 -1.00418 51.2395 0.43294 -0.901423 1 0.5 0 1
165 1 39.7724 45.7208 0 39.7724 45.7208 0 -211.948 -307.558 -151.603 -182.279 -0.353679 -0.935367 1 0.5 0 1
166 1 61.3159 17.9006 0 61.3159 17.9006 0 584.166 164.572 -54.6157 44.4905 -0.799746 0.600339 1 0.5 0 1
167 1 30.9897 28.4878 0 30.9897 28.4878 0 -836.323 -498.821 -78.959 10.9768 0.864131 0.503267 1 0.5 0 1
168 1 50.9912 56.8415 0 50.9912 56.8415 0 -82.6279 334.958 -8.89491 98.0025 0.575315 0.817932 1 0.5 0 1
169 1 38.4725 61.1257 0 38.4725 61.1257 0 357.771 118.682 -43.5103 53.1762 -0.118424 0.992963 1 0.5 0 1
170 1 75.1621 56.873 0 75.1621 56.873 0 -276.974 93.7807 42.2357 87.1526 0.397913 0.917423 1 0.5 0 1
171 1 0.822573 57.5345 0 80.0886 57.5345 0 219.996 -772.971 84.7418 -77.8506 0.716959 -0.697115 1 0.5 0 1
172 1 40.7297 67.4208 0 40.7297 -11.8452 0 11.6214 -262.07 -94.2769 10.9508 -0.679443 -0.733728 1 0.5 0 1
173 1 48.7535 39.6868 0 48.7535 39.6868 0 -79.5674 387.277 0.988886 -66.7148 0.288289 -0.957543 1 0.5 0 1
174 1 24.4373 29.84 0 24.4373 29.84 0 184.131 472.102 -43.466 107.604 -0.678083 0.734986 1 0.5 0 1
175 1 15.7086 6.39589 0 15.7086 6.39589 0 -282.288 -43.3251 -53.9253 -17.8989 0.997949 0.0640147 1 0.5 0 1
176 1 38.4603 59.3524 0 38.4603 59.3524 0 -87.0803 -120.932 -65.7514 -0.944834 -0.939819 0.341672 1 0.5 0 1
177 1 42.2985 63.6032 0 42.2985 63.6032 0 226.573 -208.407 -22.3237 -102.782 -0.987487 0.157699 1 0.5 0 1
178 1 78.5266 4.02475 0 -0.739355 83.2908 0 -682.735 997.353 21.6372 8.11319 -0.56785 0.823132 1 0.5 0 1
179 1 24.6363 66.3273 0 24.6363 -12.9387 0 -215.842 -185.521 98.2907 -57.6345 -0.928767 -0.370664 1 0.5 0 1
180 1 74.0904 35.1322 0 74.0904 35.1322 0 384.016 82.7768 82.6704 -39.6273 0.984945 0.172868 1 0.5 0 1
181 1 60.8392 18.9073 0 60.8392 18.9073 0 155.959 -112.612 7.23381 -40.9792 0.165059 0.986284 1 0.5 0 1
182 1 48.7612 12.8032 0 48.7612 92.0692 0 97.8344 -119.003 6.07878 62.7513 0.629489 0.77701 1 0.5 0 1
183 1 29.4549 12.2267 0 29.4549 12.2267 0 -130.212 -393.535 27.1333 -91.1916 0.311956 -0.950097 1 0.5 0 1
184 1 65.6996 36.0235 0 65.6996 36.0235 0 25.59 -111.875 -168.079 88.1175 -0.993502 0.113815 1 0.5 0 1
185 1 62.1597 48.8954 0 62.1597 48.8954 0 -154.277 107.334 8.1405 7.28401 0.990875 -0.134785 1 0.5 0 1
186 1 39.8468 34.6662 0 39.8468 34.6662 0 -776.573 522.58 -38.9485 -12.4758 -0.0721367 0.997395 1 0.5 0 1
187 1 3.80894 78.6479 0 3.80894 78.6479 0 313.235 -288.101 -31.0014 75.9933 -0.718866 0.695149 1 0.5 0 1
188 1 73.0831 66.0101 0 73.0831 66.0101 0 9.96571 450.15 117.46 -103.318 -0.417019 -0.908898 1 0.5 0 1
189 1 2.2778 27.3006 0 2.2778 27.3006 0 -277.239 408.734 65.2768 -104.475 0.357778 -0.933807 1 0.5 0 1
190 1 19.2579 53.6247 0 19.2579 53.6247 0 73.0362 420.434 -94.6672 22.2187 -0.997823 0.0659518 1 0.5 0 1
191 1 1.25839 78.667 0 80.5244 -0.598966 0 -375.68 -903.481 77.9013 -82.8913 0.393917 -0.919146 1 0.5 0 1
192 1 59.3255 24.5795 0 59.3255 24.5795 0 150.208 -128.481 119.453 -39.5028 0.404753 0.914426 1 0.5 0 1
193 1 32.4127 9.22003 0 32.4127 9.22003 0 2.5608 298.741 47.5742 -44.5104 -0.999423 -0.0339713 1 0.5 0 1
194 1 53.5039 55.8799 0 53.5039 55.8799 0 -181.998 312.59 -122.705 -31.6807 -0.956153 0.292868 1 0.5 0 1
195 1 23.4845 25.9541 0 23.4845 25.9541 0 222.945 67.677 16.5918 -154.64 0.734861 0.678218 1 0.5 0 1
196 1 61.5424 34.8398 0 61.5424 34.8398 0 -153.143 830.655 30.8554 -95.0965 0.259759 -0.965674 1 0.5 0 1
197 1 12.5075 46.2482 0 12.5075 46.2482 0 1118.56 -374.96 95.2962 13.5381 0.430516 0.902583 1 0.5 0 1
198 1 72.5603 39.0437 0 72.5603 39.0437 0 365.213 667.897 38.0627 -40.4136 0.2608 -0.965393 1 0.5 0 1
199 1 25.8564 20.0864 0 25.8564 20.0864 0 -272.84 722.018 -68.9952 126.099 -0.739509 0.673146 1 0.5 0 1
200 1 5.34541 49.8653 0 5.34541 49.8653 0 -349.588 -388.784 99.8355 33.8524 0.600134 0.799899 1 0.5 0 1
201 1 36.4683 61.8176 0 36.4683 -17.4484 0 61.0922 -324.748 -57.3491 -30.0979 -0.532605 -0.846364 1 0.5 0 1
202 1 68.079 23.0662 0 -11.187 23.0662 0 -971.175 -1585.87 10.3564 19.252 -0.946179 -0.323643 1 0.5 0 1
203 1 21.9971 54.2319 0 21.9971 54.2319 0 -1428.81 71.6888 -53.423 50.4494 -0.39205 0.919944 1 0.5 0 1
204 1 11.3074 20.474 0 11.3074 20.474 0 98.0822 523.377 -59.7342 66.5038 0.28582 0.958283 1 0.5 0 1
205 1 33.245 59.8535 0 33.245 59.8535 0 112.559 -384.161 -103.78 -89.485 -0.979073 -0.203509 1 0.5 0 1
206 1 14.6434 6.49709 0 14.6434 6.49709 0 -1260.02 -419.885 -59.766 -82.8249 -0.235742 -0.971816 1 0.5 0 1
207 1 23.2154 46.7597 0 23.2154 46.7597 0 387.765 -217.374 -5.22613 26.0762 -0.140679 0.990055 1 0.5 0 1
208 1 65.8107 63.9193 0 65.8107 63.9193 0 246.626 -406.42 9.37769 -45.0095 -0.941347 0.337439 1 0.5 0 1
209 1 62.6418 19.4414 0 62.6418 19.4414 0 158.978 99.1081 -13.6561 -23.4418 -0.063163 0.998003 1 0.5 0 1
210 1 31.0489 5.50952 0 31.0489 84.7755 0 -162.988 164.155 -98.8181 0.271576 -0.986277 0.165098 1 0.5 0 1
211 1 62.6699 34.9899 0 62.6699 34.9899 0 -408.057 483.444 -16.0732 -102.718 -0.785407 0.618979 1 0.5 0 1
212 1 72.1322 72.9468 0 72.1322 -6.31921 0 185.099 53.5467 80.3449 39.2689 0.971495 -0.237059 1 0.5 0 1
213 1 20.5777 61.6518 0 20.5777 61.6518 0 184.146 -568.738 41.5544 -1.54109 0.95268 0.303975 1 0.5 0 1
214 1 42.2124 69.1516 0 42.2124 69.1516 0 164.624 -102.005 32.824 19.6667 0.669516 0.742798 1 0.5 0 1
215 1 2.12102 63.3539 0 2.12102 -15.9121 0 -38.2271 -540.657 5.21211 -50.4134 0.161305 -0.986905 1 0.5 0 1
216 1 19.6979 3.56252 0 19.6979 82.8285 0 210.139 21.0163 -102.56 61.4202 -0.701462 0.712706 1 0.5 0 1
217 1 51.4097 37.8473 0 51.4097 37.8473 0 302.51 -48.1797 -0.258297 10.0194 -0.724199 -0.689591 1 0.5 0 1
218 1 19.5542 32.451 0 19.5542 32.451 0 -760.309 -49.552 76.4456 31.9398 0.987168 0.159684 1 0.5 0 1
219 1 43.8861 48.1069 0 43.8861 48.1069 0 109.237 -357.035 34.2799 -7.20239 0.638341 -0.769754 1 0.5 0 1
220 1 55.3598 10.7819 0 55.3598 10.7819 0 381.093 12.3146 65.9617 46.1316 0.718067 -0.695974 1 0.5 0 1
221 1 54.7297 38.2965 0 54.7297 38.2965 0 -252.7 39.7302 163.81 -15.6725 -0.53573 0.844389 1 0.5 0 1
222 1 38.5026 4.15982 0 38.5026 4.15982 0 -767.476 -318.711 -20.3166 39.4081 -0.445207 -0.895428 1 0.5 0 1
223 1 6.05845 32.8276 0 6.05845 32.8276 0 227.195 85.4613 -75.0043 16.448 -0.63276 0.774348 1 0.5 0 1
224 1 74.8022 62.6512 0 -4.4638 62.6512 0 -318.313 -402.595 -89.3164 -0.905316 -0.998981 -0.0451314 1 0.5 0 1
225 1 75.5623 13.175 0 75.5623 13.175 0 169.781 -670.117 10.5015 -53.9847 0.0913509 -0.995819 1 0.5 0 1
226 1 48.5644 34.4908 0 48.5644 34.4908 0 203.686 -353.965 -27.571 -19.9345 -0.835641 -0.549275 1 0.5 0 1
227 1 60.4484 12.3659 0 60.4484 12.3659 0 43.8142 -136.178 95.3831 30.0342 0.953831 0.300342 1 0.5 0 1
228 1 26.7463 71.3625 0 26.7463 71.3625 0 -374.923 85.8898 -46.2642 -44.7073 -0.523137 0.852249 1 0.5 0 1
229 1 54.9203 26.6897 0 54.9203 26.6897 0 -28.1508 -584.884 91.3965 -40.5793 0.913965 -0.405793 1 0.5 0 1
230 1 66.6029 15.3739 0 66.6029 94.6399 0 952.36 281.301 0.926806 11.9965 -0.257064 0.966394 1 0.5 0 1
231 1 33.6767 49.7277 0 33.6767 49.7277 0 -8.15098 278.537 38.1732 62.177 0.640238 0.768177 1 0.5 0 1
232 1 34.2297 68.5138 0 34.2297 -10.7522 0 154.78 26.801 -114.757 -50.6283 -0.421815 -0.906682 1 0.5 0 1
233 1 52.7242 46.4948 0 52.7242 46.4948 0 -37.1814 12.9 -97.4503 -22.4374 -0.974503 -0.224374 1 0.5 0 1
234 1 50.3143 74.9459 0 50.3143 -4.3201 0 362.879 84.7581 -70.225 -75.4833 -0.775391 -0.631481 1 0.5 0 1
235 1 17.1455 67.1881 0 17.1455 67.1881 0 310.303 650.385 -63.3603 -116.538 -0.453417 0.891298 1 0.5 0 1
236 1 64.7145 64.9296 0 64.7145 64.9296 0 256.053 -548.434 84.8409 57.2861 0.976523 -0.215412 1 0.5 0 1
237 1 30.0639 30.656 0 30.0639 30.656 0 261.615 228.794 -15.7951 -96.9515 0.840925 0.541152 1 0.5 0 1
238 1 56.6126 54.2628 0 56.6126 54.2628 0 762.764 -267.375 -7.07874 -79.7302 0.281303 -0.959619 1 0.5 0 1
239 1 9.25663 21.6155 0 88.5226 21.6155 0 403.892 174.632 45.0808 -77.5088 0.525203 0.850977 1 0.5 0 1
240 1 9.48197 32.3656 0 9.48197 32.3656 0 -667.141 562.732 38.541 -13.0987 0.984335 0.176306 1 0.5 0 1
241 1 62.8022 74.6293 0 62.8022 74.6293 0 -339.588 153.759 -7.81218 5.85838 -0.999622 0.0275013 1 0.5 0 1
242 1 62.9554 71.6973 0 62.9554 -7.56866 0 451.625 974.1 4.83195 -147.258 0.742884 -0.66942 1 0.5 0 1
243 1 17.5404 66.1361 0 17.5404 66.1361 0 -601.843 -447.619 -78.5971 -17.1309 -0.90077 -0.434296 1 0.5 0 1
244 1 53.811 40.8809 0 53.811 40.8809 0 58.571 792.917 -38.3116 -52.1139 -0.95606 -0.293172 1 0.5 0 1
245 1 50.7731 31.4251 0 50.7731 31.4251 0 212.535 294.646 -20.0761 91.9815 0.555736 0.831359 1 0.5 0 1
246 1 21.3525 30.446 0 21.3525 30.446 0 -397.451 -221 -3.95522 22.0903 0.91534 -0.402682 1 0.5 0 1
247 1 60.8894 71.2236 0 60.8894 -8.04242 0 629.247 -31.1031 -46.4817 32.1887 0.491209 -0.871042 1 0.5 0 1
248 1 74.0491 3.90849 0 -5.21687 83.1745 0 -675.544 183.959 37.2218 -69.2347 -0.870992 0.491296 1 0.5 0 1
249 1 41.1524 15.7721 0 41.1524 15.7721 0 739.633 -60.2984 41.6101 66.9924 0.967665 0.252239 1 0.5 0 1
250 1 7.66928 26.7327 0 86.9353 26.7327 0 -180.211 297.417 99.2003 55.1699 0.950177 0.311711 1 0.5 0 1
251 1 27.8912 5.11116 0 27.8912 84.3772 0 238.109 439.073 28.418 60.9613 0.717748 0.696303 1 0.5 0 1
252 1 19.9811 63.5472 0 19.9811 63.5472 0 -154.914 -334.939 46.8401 74.3434 -0.194542 0.980894 1 0.5 0 1
253 1 22.6908 29.1857 0 22.6908 29.1857 0 -9.9376 -191.714 -55.466 -59.3296 -0.747436 0.664334 1 0.5 0 1
254 1 37.4419 48.2779 0 37.4419 48.2779 0 -179.747 -1022.27 -17.7341 57.5624 -0.419224 0.907883 1 0.5 0 1
255 1 5.68159 1.90126 0 84.9476 81.1673 0 -628.277 -325.271 33.3287 91.3232 0.72743 0.686182 1 0.5 0 1
256 1 71.2693 34.1389 0 -7.99666 34.1389 0 259.129 358.232 15.6967 59.024 -0.998867 0.0475963 1 0.5 0 1
257 1 38.4573 79.1431 0 38.4573 79.1431 0 71.9402 -230.04 -56.9919 81.109 -0.288651 0.957434 1 0.5 0 1
258 1 15.6903 22.3995 0 15.6903 22.3995 0 -533.377 116.562 20.5631 -48.7912 0.249146 -0.968466 1 0.5 0 1
259 1 11.2995 10.4738 0 90.5655 10.4738 0 -44.585 72.9216 79.1415 -140.023 0.603328 0.797493 1 0.5 0 1
260 1 79.037 47.2044 0 79.037 47.2044 0 -110.788 -211.013 300.835 -242.352 0.952807 -0.303578 1 0.5 0 1
261 1 13.086 30.5258 0 13.086 30.5258 0 -238.397 391.287 -34.6239 -70.4046 -0.263111 -0.964766 1 0.5 0 1
262 1 15.2674 14.8419 0 94.5334 14.8419 0 -16.688 -469.847 128.256 -2.15788 0.8575 0.514485 1 0.5 0 1
263 1 5.7755 7.95225 0 5.7755 7.95225 0 -174.901 444.628 40.5637 -125.309 -0.185991 -0.982551 1 0.5 0 1
264 1 12.4902 22.42 0 91.7562 22.42 0 -149.934 -736.221 15.539 74.6054 0.673459 0.739225 1 0.5 0 1
265 1 22.3482 76.6987 0 22.3482 76.6987 0 -111.936 -186.302 -31.0527 104.395 0.358268 0.933619 1 0.5 0 1
266 1 34.1698 64.7802 0 34.1698 64.7802 0 -807.244 -440.4 6.40445 -66.9336 0.663962 -0.747766 1 0.5 0 1
267 1 15.3368 16.6727 0 15.3368 16.6727 0 20.0853 150.227 88.8642 1.17729 -0.784523 -0.6201 1 0.5 0 1
268 1 56.7454 78.2469 0 56.7454 78.2469 0 -1187.44 662.714 95.8473 17.3455 0.99943 -0.0337727 1 0.5 0 1
269 1 19.2248 25.4897 0 98.4908 25.4897 0 280.864 -371.006 79.5751 -13.1987 0.518248 -0.85523 1 0.5 0 1
270 1 8.09755 10.7177 0 87.3635 10.7177 0 -864.905 -501.261 23.8179 44.9298 0.963147 0.268974 1 0.5 0 1
271 1 30.7666 59.0187 0 30.7666 59.0187 0 -992.722 -677.245 58.8481 14.9108 0.829959 -0.557824 1 0.5 0 1
272 1 56.4873 22.4343 0 56.4873 22.4343 0 -153.891 217.039 -14.3046 32.7432 0.929954 0.367676 1 0.5 0 1
273 1 38.2327 40.1187 0 38.2327 40.1187 0 -284.009 -390.74 30.2752 60.5294 0.691389 0.722482 1 0.5 0 1
274 1 35.1019 9.04423 0 35.1019 9.04423 0 300.621 671.687 116.248 -34.6525 0.0915311 -0.995802 1 0.5 0 1
275 1 36.1402 1.84081 0 36.1402 1.84081 0 350.887 -7.12856 48.6685 -41.8917 0.957639 -0.287973 1 0.5 0 1
276 1 52.4263 32.7275 0 52.4263 32.7275 0 557.071 60.4358 -24.3366 -18.1625 0.258316 0.96606 1 0.5 0 1
277 1 75.0796 45.7137 0 -4.18636 45.7137 0 -277.879 -186.07 41.7659 65.4226 -0.944665 0.328038 1 0.5 0 1
278 1 13.8015 47.2789 0 13.8015 47.2789 0 419.784 457.046 -4.42686 99.902 -0.0442686 0.99902 1 0.5 0 1
279 1 68.0043 27.8125 0 68.0043 27.8125 0 451.23 -299.009 -23.3132 -8.60808 0.782495 0.622656 1 0.5 0 1
280 1 72.1354 3.47402 0 72.1354 3.47402 0 115.657 309.887 -72.6969 24.8989 0.146991 -0.989138 1 0.5 0 1
281 1 49.6945 36.9332 0 49.6945 36.9332 0 40.9613 926.138 -66.776 -112.877 -0.0506526 0.998716 1 0.5 0 1
282 1 28.6182 28.7365 0 28.6182 28.7365 0 415.305 -33.1314 -20.4953 -46.9128 0.7748 -0.632206 1 0.5 0 1
283 1 14.2274 69.2849 0 14.2274 69.2849 0 36.5328 -560.456 41.5737 35.529 -0.549204 0.835688 1 0.5 0 1
284 1 8.27513 75.34 0 8.27513 75.34 0 -852.154 -164.491 -99.7576 6.95907 -0.997576 0.0695907 1 0.5 0 1
285 1 78.8778 37.7146 0 78.8778 37.7146 0 65.6668 -125.935 -19.812 -60.7911 0.0506985 -0.998714 1 0.5 0 1
286 1 24.5003 46.1437 0 24.5003 46.1437 0 -147.519 76.6101 -106.788 16.4629 -0.908764 0.41731 1 0.5 0 1