ITEM: TIMESTEP
110000
ITEM: NUMBER OF ATOMS
4000
ITEM: BOX BOUNDS pp pp pp
0.0000000000000000e+00 7.9266000000000005e+01
0.0000000000000000e+00 7.9266000000000005e+01
-5.0000000000000000e-01 5.0000000000000000e-01
ITEM: ATOMS id type x y z xu yu zu vx vy fx fy mux muy mu radius omegaz mass
1 1 51.05 70.6889 0 51.05 70.6889 0 -140.477 236.354 -62.069 -138.533 0.775297 0.631597 1 0.5 0 1
2 1 27.356 62.7493 0 27.356 -16.5167 0 57.5832 -770.124 -205.823 329.221 -0.237054 -0.971497 1 0.5 0 1
3 1 54.6618 59.6933 0 54.6618 -19.5727 0 387.161 -1097.4 -32.6115 -62.8176 -0.255255 -0.966874 1 0.5 0 1
4 1 56.8527 29.7067 0 56.8527 108.973 0 -336.069 411.542 27.6032 -51.7065 -0.769981 0.638067 1 0.5 0 1
5 1 37.4547 24.7294 0 37.4547 24.7294 0 -513.182 -223.742 -91.7093 -39.8674 -0.917093 -0.398674 1 0.5 0 1
6 1 15.6049 23.6301 0 15.6049 23.6301 0 -120.565 526.941 59.8032 26.2479 -0.999998 -0.00196752 1 0.5 0 1
7 1 68.4671 46.0794 0 68.4671 46.0794 0 -287.11 -187.226 -124.591 23.0822 -0.488552 0.872535 1 0.5 0 1
8 1 22.0037 71.1513 0 22.0037 -8.11471 0 553.755 264.886 -101.03 -42.1565 -0.392586 -0.919715 1 0.5 0 1
9 1 54.7641 18.8376 0 54.7641 18.8376 0 331.808 116.044 93.7557 -6.34935 0.996011 -0.0892281 1 0.5 0 1
10 1 62.1655 60.5434 0 62.1655 60.5434 0 493.121 -54.9835 -90.9748 -26.2001 -0.826307 -0.56322 1 0.5 0 1
11 1 49.6553 52.8978 0 -29.6107 52.8978 0 -523.204 372.574 -67.4354 40.1391 -0.988081 -0.153935 1 0.5 0 1
12 1 66.2366 64.4021 0 66.2366 64.4021 0 -13.5822 -42.7112 23.4594 87.7713 0.208571 0.978007 1 0.5 0 1
13 1 26.7269 47.4768 0 26.7269 47.4768 0 483.783 -377.241 85.4858 -73.2825 0.576312 -0.81723 1 0.5 0 1
14 1 51.973 44.1813 0 -27.293 44.1813 0 180.237 -50.7643 -48.0606 24.339 -0.853082 -0.521778 1 0.5 0 1
15 1 34.4076 52.0735 0 34.4076 52.0735 0 -90.8932 596.574 124.305 -86.1383 -0.653169 -0.757212 1 0.5 0 1
16 1 54.4176 5.69731 0 -24.8484 5.69731 0 -8.33074 117.382 -99.5593 -9.37751 -0.995593 -0.0937751 1 0.5 0 1
17 1 36.8098 57.3027 0 36.8098 57.3027 0 -276.603 253.418 30.4407 57.2915 0.22703 0.973888 1 0.5 0 1
18 1 19.8339 12.6744 0 19.8339 12.6744 0 742.494 85.0962 -51.005 -14.0466 -0.962849 -0.27004 1 0.5 0 1
19 1 13.6917 42.4325 0 13.6917 42.4325 0 -269.075 366.899 68.3789 19.7373 -0.879734 -0.475466 1 0.5 0 1
20 1 27.2963 60.1553 0 27.2963 60.1553 0 513.538 138.001 4.48428 50.9264 0.733282 0.679924 1 0.5 0 1
21 1 47.392 79.244 0 47.392 -0.0219672 0 324.874 40.1349 -1.80751 107.627 -0.568689 0.822552 1 0.5 0 1
22 1 57.635 21.049 0 57.635 21.049 0 -45.5905 11.4879 16.8393 41.3133 0.976491 -0.215558 1 0.5 0 1
23 1 42.0307 66.2434 0 42.0307 -13.0226 0 -234.443 -517.855 66.5009 -42.6478 0.703245 -0.710948 1 0.5 0 1
24 1 65.7889 56.0225 0 65.7889 -23.2435 0 -598.795 294.51 -55.8732 -71.2454 -0.0960666 -0.995375 1 0.5 0 1
25 1 61.6944 72.6933 0 -17.5716 -6.57268 0 26.2131 849.084 -39.1663 -71.4249 -0.908862 -0.417096 1 0.5 0 1
26 1 28.5647 50.3768 0 28.5647 -28.8892 0 -857.592 250.197 -38.5663 -168.348 -0.674984 -0.737833 1 0.5 0 1
27 1 27.5296 41.5494 0 27.5296 41.5494 0 -289.305 -344.769 -57.1289 35.9669 -0.90945 0.415814 1 0.5 0 1
28 1 12.4826 63.9665 0 12.4826 63.9665 0 -13.132 750.489 -50.4867 43.0448 0.122433 0.992477 1 0.5 0 1
29 1 78.4836 37.2688 0 -0.782423 37.2688 0 -323.78 461.524 204.202 -91.0767 -0.964808 0.262954 1 0.5 0 1
30 1 53.102 29.9247 0 53.102 109.191 0 207.777 210.524 63.906 132.921 0.689038 0.724725 1 0.5 0 1
31 1 16.3024 33.1333 0 16.3024 33.1333 0 -154.136 292.38 -7.36361 -93.5243 -0.438031 -0.89896 1 0.5 0 1
32 1 22.7361 57.1803 0 22.7361 57.1803 0 452.094 605.016 25.8627 27.3022 0.743464 0.668776 1 0.5 0 1
33 1 37.3545 54.2543 0 37.3545 -25.0117 0 418.931 57.1427 79.1703 61.0906 0.791703 0.610906 1 0.5 0 1
34 1 7.64721 39.8441 0 86.9132 39.8441 0 634.489 264.992 46.8917 -19.7884 0.276515 0.96101 1 0.5 0 1
35 1 76.9055 68.4145 0 -2.36046 68.4145 0 673.75 586.007 -60.6324 -216.955 -0.993975 -0.109605 1 0.5 0 1
36 1 42.9853 69.7701 0 42.9853 -9.49592 0 117.324 -641.839 29.4421 -16.3053 0.249693 -0.968325 1 0.5 0 1
37 1 73.1812 40.0804 0 73.1812 40.0804 0 -489.596 -622.341 146.622 150.452 0.642858 0.765986 1 0.5 0 1
38 1 26.8215 58.6342 0 106.087 58.6342 0 336.708 -35.9726 37.0124 -177.304 0.176634 0.984277 1 0.5 0 1
39 1 34.8118 73.3794 0 34.8118 -5.88655 0 -19.4901 1202.17 -51.181 -126.573 0.51166 -0.859188 1 0.5 0 1
40 1 51.0073 76.4189 0 -28.2587 -2.84709 0 519.462 1463.16 -71.5107 50.8738 -0.728388 0.685165 1 0.5 0 1
41 1 69.0942 49.6108 0 69.0942 49.6108 0 -659.131 -214.827 127.055 -57.8165 0.635226 -0.772326 1 0.5 0 1
42 1 4.37264 64.0831 0 4.37264 64.0831 0 523.952 -180.186 -74.7272 -1.77884 -0.79221 -0.610249 1 0.5 0 1
43 1 72.5376 64.505 0 -6.72843 64.505 0 162.2 592.312 -181.684 75.8052 -0.556782 0.830659 1 0.5 0 1
44 1 61.7143 11.7096 0 61.7143 90.9756 0 -72.6476 -122.105 -10.9092 63.3044 -0.597519 0.801855 1 0.5 0 1
45 1 18.3181 30.4396 0 18.3181 30.4396 0 -105.953 823.567 26.8936 -137.99 0.850881 -0.525359 1 0.5 0 1
46 1 10.9968 32.6131 0 10.9968 32.6131 0 -201.367 -387.006 -143.525 -21.7544 0.340207 0.940351 1 0.5 0 1
47 1 14.5423 67.1546 0 14.5423 -12.1114 0 432.192 -488.039 -70.6327 -79.4914 0.996526 -0.0832869 1 0.5 0 1
48 1 37.2139 46.4642 0 37.2139 46.4642 0 -99.2542 -616.295 -87.3211 -19.2101 -0.954396 -0.298544 1 0.5 0 1
49 1 10.6779 16.3734 0 89.9439 95.6394 0 -547.151 281.401 52.5617 -39.6992 0.988272 0.152703 1 0.5 0 1
50 1 64.9526 26.1489 0 64.9526 26.1489 0 51.7038 502.907 17.5376 12.0284 -0.440752 0.897629 1 0.5 0 1
51 1 76.6996 11.3702 0 -2.56639 11.3702 0 -355.56 985.476 -76.88 6.49341 -0.975804 0.218645 1 0.5 0 1
52 1 16.0016 11.5806 0 95.2676 11.5806 0 680.88 -373.71 -54.7147 7.1257 0.981239 -0.192793 1 0.5 0 1
53 1 36.6742 19.5447 0 36.6742 98.8107 0 262.125 483.36 -32.8665 94.4446 -0.328665 0.944446 1 0.5 0 1
54 1 54.3853 26.3383 0 54.3853 26.3383 0 -517.763 -207.983 228.392 -16.954 0.615239 -0.788341 1 0.5 0 1
55 1 13.8799 8.85498 0 93.1459 88.121 0 287.166 693.796 -69.886 44.8866 0.991096 -0.133148 1 0.5 0 1
56 1 35.4791 45.0665 0 35.4791 45.0665 0 267.36 335.868 -124.56 -76.856 -0.836066 -0.548628 1 0.5 0 1
57 1 19.384 72.4291 0 19.384 72.4291 0 372.397 459.985 -89.9996 -17.2268 -0.960991 -0.276579 1 0.5 0 1
58 1 11.0003 10.327 0 11.0003 10.327 0 180.789 250.015 32.6401 12.9227 -0.999482 -0.0321825 1 0.5 0 1
59 1 67.8182 26.6017 0 67.8182 26.6017 0 -285.812 518.768 -20.194 -7.68218 -0.268212 0.96336 1 0.5 0 1
60 1 60.2939 34.3806 0 60.2939 34.3806 0 -247.768 255.629 3.46162 -41.3315 0.931398 0.364001 1 0.5 0 1
61 1 61.696 38.4992 0 61.696 38.4992 0 302.192 177.589 31.4491 44.7107 0.481121 0.876654 1 0.5 0 1
62 1 54.4549 4.31556 0 54.4549 4.31556 0 -316.921 -339.507 73.4372 -67.8747 0.734372 -0.678747 1 0.5 0 1
63 1 56.0034 56.9585 0 -23.2626 56.9585 0 166.541 -714.936 -72.953 -68.3949 -0.72953 -0.683949 1 0.5 0 1
64 1 58.454 55.6106 0 58.454 55.6106 0 -152.677 -305.902 -4.72523 -15.8113 -0.0972375 0.995261 1 0.5 0 1
65 1 71.8183 77.255 0 71.8183 77.255 0 240.647 136.34 -21.8948 97.5736 -0.218948 0.975736 1 0.5 0 1
66 1 68.1635 72.8319 0 68.1635 72.8319 0 142.889 -293.336 -43.8255 -68.1273 0.795565 0.605868 1 0.5 0 1
67 1 56.7792 35.8479 0 56.7792 35.8479 0 213.687 147.931 -2.36083 -9.92835 0.717934 0.696112 1 0.5 0 1
68 1 52.3266 51.8595 0 52.3266 51.8595 0 157.524 -37.8347 -9.19618 -82.8262 0.501202 0.86533 1 0.5 0 1
69 1 26.8446 66.3265 0 26.8446 66.3265 0 -137.444 -180.053 -46.9205 -110.325 -0.420051 -0.9075 1 0.5 0 1
70 1 34.5338 15.3719 0 34.5338 94.6379 0 46.1387 -701.046 76.0297 71.4133 0.480277 0.877117 1 0.5 0 1
71 1 29.2529 37.8667 0 29.2529 37.8667 0 -635.974 69.2623 6.1062 -66.2514 -0.785996 -0.618232 1 0.5 0 1
72 1 78.4106 59.2699 0 -0.855427 59.2699 0 257.644 -162.784 28.9978 1.67691 -0.595816 -0.803121 1 0.5 0 1
73 1 70.7225 6.10099 0 70.7225 6.10099 0 368.93 -395.378 -7.43063 11.5274 -0.393855 -0.919173 1 0.5 0 1
74 1 67.1715 65.0987 0 67.1715 65.0987 0 -145.325 -414.439 -108.539 85.6944 0.999204 0.0398931 1 0.5 0 1
75 1 0.938504 36.06 0 0.938504 36.06 0 142.669 648.493 30.6971 -100.918 -0.876315 0.481739 1 0.5 0 1
76 1 71.9245 26.0786 0 -7.34149 26.0786 0 -170.927 152.75 -99.9828 -1.85313 -0.999828 -0.0185313 1 0.5 0 1
77 1 3.147 28.4979 0 3.147 28.4979 0 -271.617 322.755 36.7686 91.8306 0.293797 0.955868 1 0.5 0 1
78 1 28.8169 41.8693 0 28.8169 41.8693 0 -773.82 -457.292 -53.8581 -136.507 -0.938815 0.344422 1 0.5 0 1
79 1 22.9693 75.2109 0 22.9693 75.2109 0 190.001 -435.541 -47.2118 37.9837 -0.946538 0.322593 1 0.5 0 1
80 1 29.0396 29.1326 0 29.0396 -50.1334 0 79.8002 288.654 -5.20938 -91.3666 -0.724357 -0.689425 1 0.5 0 1
81 1 28.4906 38.6409 0 107.757 38.6409 0 69.4194 -93.168 21.0673 -22.634 0.999338 -0.0363858 1 0.5 0 1
82 1 6.12553 37.045 0 6.12553 37.045 0 298.114 566.877 1.91236 11.6031 -0.868509 0.495673 1 0.5 0 1
83 1 44.6229 47.3536 0 44.6229 47.3536 0 633.392 306.413 60.6374 93.7946 0.598605 0.801044 1 0.5 0 1
84 1 79.1934 43.7361 0 -0.072632 43.7361 0 -751.232 676.191 240.356 156.212 -0.908735 -0.417373 1 0.5 0 1
85 1 25.1091 66.5712 0 25.1091 -12.6948 0 337.962 463.459 -5.56015 -112.205 0.44782 -0.894124 1 0.5 0 1
86 1 15.2316 74.0392 0 15.2316 -5.2268 0 27.2518 335.941 -77.2887 -61.8462 -0.998399 -0.0565639 1 0.5 0 1
87 1 40.9351 46.1328 0 40.9351 46.1328 0 -452.213 -339.953 63.9551 193.157 -0.819445 0.573157 1 0.5 0 1
88 1 51.9062 36.5229 0 51.9062 36.5229 0 -767.008 550.32 -37.9342 93.6093 -0.640958 0.767576 1 0.5 0 1
89 1 19.5613 64.2743 0 19.5613 64.2743 0 852.973 35.1313 6.85913 19.057 0.791586 0.611058 1 0.5 0 1
90 1 16.0469 38.2863 0 16.0469 38.2863 0 465.587 -610.897 -43.2197 -17.633 -0.915752 -0.401744 1 0.5 0 1
91 1 5.7032 52.056 0 5.7032 -27.21 0 -374.165 -826.196 100.757 -4.86888 0.890554 -0.454877 1 0.5 0 1
92 1 3.77433 53.2017 0 3.77433 53.2017 0 11.2669 -923.397 -39.2538 -38.9828 -0.758854 0.651261 1 0.5 0 1
93 1 4.34201 44.3317 0 4.34201 44.3317 0 -705.396 -22.3506 66.0748 186.721 -0.251001 -0.967987 1 0.5 0 1
94 1 75.1395 34.117 0 75.1395 34.117 0 759.387 264.638 90.1259 74.3533 0.214993 0.976616 1 0.5 0 1
95 1 68.5606 45.0924 0 68.5606 45.0924 0 112.229 -358.564 -100.594 117.964 0.98978 0.142604 1 0.5 0 1
96 1 58.166 34.3205 0 58.166 34.3205 0 -127.187 -91.1136 187.912 -69.916 0.756489 -0.654006 1 0.5 0 1
97 1 65.859 25.5981 0 65.859 25.5981 0 -308.947 252.697 -171.713 99.0778 -0.968548 -0.248828 1 0.5 0 1
98 1 77.2999 7.94377 0 -1.96614 87.2098 0 122.616 169.863 38.301 94.7699 0.920744 0.390168 1 0.5 0 1
99 1 41.5507 23.044 0 41.5507 23.044 0 277.43 -549.336 35.1507 41.8121 -0.878555 -0.47764 1 0.5 0 1
100 1 75.8172 41.6446 0 75.8172 41.6446 0 -392.821 -24.2622 -107.265 124.327 0.847842 -0.530249 1 0.5 0 1
101 1 47.4113 17.1068 0 47.4113 17.1068 0 115.542 -510.229 9.00015 -99.5942 0.0900015 -0.995942 1 0.5 0 1
102 1 2.6534 41.294 0 2.6534 41.294 0 -190.656 -520.277 129.78 98.7198 -0.809572 0.587021 1 0.5 0 1
103 1 16.7604 57.9286 0 16.7604 57.9286 0 -241.487 -304.962 -74.5097 -20.3988 -0.800818 0.598908 1 0.5 0 1
104 1 56.3418 37.1242 0 56.3418 116.39 0 531.515 -358.688 90.8276 18.7233 0.890158 0.455652 1 0.5 0 1
105 1 61.0354 58.6476 0 -18.2306 -20.6184 0 216.448 665.331 31.971 -35.3939 0.147782 -0.98902 1 0.5 0 1
106 1 26.2928 34.4328 0 26.2928 34.4328 0 -187.817 -353.088 -86.7725 -1.25635 -0.987823 -0.155583 1 0.5 0 1
107 1 68.3027 31.6028 0 68.3027 31.6028 0 -392.502 189.42 -101.211 -30.5817 -0.817591 0.5758 1 0.5 0 1
108 1 6.55043 32.6871 0 6.55043 111.953 0 -447.427 278.163 39.489 70.667 0.519233 0.854633 1 0.5 0 1
109 1 71.572 64.9894 0 -7.69395 64.9894 0 -431.713 -1076.45 73.4784 -149.966 -0.798973 0.601366 1 0.5 0 1
110 1 15.1302 40.0346 0 15.1302 40.0346 0 532.934 -423.587 -29.0718 51.1384 0.93462 0.355649 1 0.5 0 1
111 1 17.0793 32.368 0 17.0793 32.368 0 -241.095 -447.664 34.3521 -32.5226 0.907549 -0.419946 1 0.5 0 1
112 1 19.8867 39.3712 0 19.8867 39.3712 0 894.878 668.751 -82.8562 116.203 -0.949852 -0.312701 1 0.5 0 1
113 1 43.5463 2.80254 0 -35.7197 2.80254 0 509.358 -126.176 -61.7575 89.3927 -0.536164 0.844114 1 0.5 0 1
114 1 16.4684 52.1819 0 16.4684 52.1819 0 12.8307 84.9615 84.8797 52.8718 0.848797 0.528718 1 0.5 0 1
115 1 71.404 68.3273 0 -7.86196 -10.9387 0 -177.492 758.831 -90.2476 -28.2589 -0.759557 0.650441 1 0.5 0 1
116 1 22.3085 73.4011 0 22.3085 -5.86493 0 -499.041 -641.505 124.001 15.085 -0.387008 -0.922076 1 0.5 0 1
117 1 68.0842 62.6501 0 68.0842 62.6501 0 938.029 504.805 61.712 -5.58392 0.0787602 0.996894 1 0.5 0 1
118 1 58.9688 33.6977 0 58.9688 33.6977 0 50.4591 -682.122 -224.753 178.021 -0.693781 -0.720186 1 0.5 0 1
119 1 18.4691 20.6927 0 18.4691 20.6927 0 -160.071 -245.436 83.6427 28.6119 0.54939 0.835566 1 0.5 0 1
120 1 2.90237 23.1712 0 82.1684 23.1712 0 415.473 169.682 67.7452 -59.8439 0.848926 -0.528512 1 0.5 0 1
121 1 50.7439 29.4005 0 -28.5221 29.4005 0 132.988 -805.341 -68.2846 43.3042 -0.992188 0.124751 1 0.5 0 1
122 1 34.8666 60.321 0 34.8666 60.321 0 246.408 578.562 -24.2259 48.5176 -0.615153 0.788408 1 0.5 0 1
123 1 2.67991 30.3121 0 2.67991 30.3121 0 -711.637 551.878 34.9568 -54.7916 -0.999555 0.0298267 1 0.5 0 1
124 1 49.525 25.3714 0 49.525 25.3714 0 -307.668 761.06 49.8843 57.8313 -0.292463 0.956277 1 0.5 0 1
125 1 57.2798 20.112 0 57.2798 20.112 0 -298.762 -391.357 -52.8159 -74.2706 0.843734 0.536762 1 0.5 0 1
126 1 75.1876 71.7901 0 75.1876 71.7901 0 58.3839 -189.236 96.8055 118.662 0.884274 0.466968 1 0.5 0 1
127 1 62.6328 19.1628 0 62.6328 98.4288 0 -126.865 -199.988 43.7768 26.3497 0.380685 0.924705 1 0.5 0 1
128 1 38.5038 40.512 0 -40.7622 40.512 0 -283.925 -319.991 -60.9972 -34.1961 -0.969671 -0.244416 1 0.5 0 1
129 1 66.6992 55.4659 0 66.6992 -23.8001 0 559.819 159.499 1.51724 -90.6995 0.590003 -0.807401 1 0.5 0 1
130 1 72.3516 53.957 0 72.3516 -25.309 0 461.705 490.419 33.8609 -113.665 0.517932 -0.855422 1 0.5 0 1
131 1 73.2531 66.2535 0 -6.01294 66.2535 0 -310.619 -150.018 -30.7369 -179.187 -0.356654 0.934237 1 0.5 0 1
132 1 1.39746 16.6144 0 1.39746 95.8804 0 -509.728 43.0529 -83.1492 55.5537 -0.831492 0.555537 1 0.5 0 1
133 1 66.4302 24.7855 0 66.4302 104.051 0 -160.397 -452.36 126.396 -68.9866 -0.37078 0.928721 1 0.5 0 1
134 1 45.2198 69.6793 0 45.2198 69.6793 0 283.335 746.314 -72.7373 -1.89175 -0.935319 -0.353806 1 0.5 0 1
135 1 58.5876 3.72999 0 58.5876 82.996 0 -113.358 -547.56 -84.9693 52.7277 -0.849693 0.527277 1 0.5 0 1
136 1 37.8624 20.1527 0 37.8624 99.4187 0 204.479 -311.213 94.1851 33.6031 0.941851 0.336031 1 0.5 0 1
137 1 30.2911 42.7441 0 109.557 42.7441 0 400.666 -758.348 16.2512 -89.5112 0.913687 0.406419 1 0.5 0 1
138 1 44.9322 25.7338 0 44.9322 25.7338 0 -1586.95 -149.875 10.3262 -67.5335 -0.37356 -0.927606 1 0.5 0 1
139 1 30.1952 63.7717 0 30.1952 -15.4943 0 -772.311 245.755 -0.721401 8.58107 -0.814536 -0.580113 1 0.5 0 1
140 1 19.9489 75.0302 0 19.9489 -4.23581 0 -703.103 42.7195 134.118 33.8664 -0.850456 -0.526046 1 0.5 0 1
141 1 20.6586 37.5167 0 20.6586 37.5167 0 -232.11 -34.9572 -153.108 42.4492 -0.968647 -0.248441 1 0.5 0 1
142 1 25.2588 58.9604 0 25.2588 58.9604 0 227.351 314.957 87.1151 -5.8414 -0.240477 0.970655 1 0.5 0 1
143 1 32.3065 14.1864 0 32.3065 93.4524 0 -139.991 186.622 -54.5281 29.6128 -0.325718 0.945467 1 0.5 0 1
144 1 51.765 1.75009 0 51.765 1.75009 0 428.614 516.554 -0.449219 -30.9006 0.00614696 -0.999981 1 0.5 0 1
145 1 62.8465 72.9139 0 62.8465 72.9139 0 153.147 -34.2145 -5.96038 -31.7773 -0.111387 0.993777 1 0.5 0 1
146 1 19.7429 73.3224 0 19.7429 -5.94361 0 63.3008 -83.5448 -56.0257 49.3097 -0.561172 -0.827699 1 0.5 0 1
147 1 78.0876 13.7295 0 78.0876 13.7295 0 1066.17 -151.723 -44.3037 7.82838 -0.306041 -0.952018 1 0.5 0 1
148 1 8.00985 13.6378 0 87.2759 13.6378 0 455.261 363.002 20.1275 40.7419 0.975108 -0.22173 1 0.5 0 1
149 1 77.984 27.8226 0 77.984 107.089 0 244.731 88.0504 7.82083 27.2058 0.74807 0.66362 1 0.5 0 1
150 1 72.5907 32.4817 0 -6.67531 32.4817 0 931.876 201.351 70.7707 -30.4081 -0.600351 0.799737 1 0.5 0 1
151 1 2.63281 55.9647 0 81.8988 -23.3013 0 417.793 -295.031 -38.1049 45.7763 -0.335021 -0.942211 1 0.5 0 1
152 1 26.1143 35.7276 0 26.1143 114.994 0 342.124 374.232 57.397 65.4174 0.693099 0.720842 1 0.5 0 1
153 1 76.2035 57.3616 0 76.2035 57.3616 0 -96.1414 249.024 -68.4198 -98.5211 0.925714 -0.378223 1 0.5 0 1
154 1 4.08802 48.5089 0 4.08802 48.5089 0 1144.02 -757.027 -131.176 187.662 -0.389363 -0.921084 1 0.5 0 1
155 1 38.7729 11.5687 0 -40.4931 11.5687 0 265.239 71.8428 -85.5349 51.8052 -0.855349 0.518052 1 0.5 0 1
156 1 75.486 46.5413 0 75.486 46.5413 0 111.181 452.037 148.66 152.577 -0.375145 0.926966 1 0.5 0 1
157 1 64.4546 14.356 0 -14.8114 14.356 0 214.674 -654 -28.3975 -70.8498 -0.255369 0.966844 1 0.5 0 1
158 1 71.539 35.9945 0 -7.72701 35.9945 0 626.373 132.713 -16.1957 -97.9008 -0.971953 -0.235176 1 0.5 0 1
159 1 78.2828 72.6926 0 78.2828 72.6926 0 619.141 76.3562 10.6358 99.4328 0.106358 0.994328 1 0.5 0 1
160 1 25.1493 78.8037 0 25.1493 -0.462254 0 590.948 -581.848 49.0317 -105.672 -0.300746 -0.953704 1 0.5 0 1
161 1 77.2613 12.9381 0 -2.00467 12.9381 0 481.39 -777.278 24.0979 0.207021 0.356526 -0.934285 1 0.5 0 1
162 1 7.43582 48.8105 0 7.43582 48.8105 0 -1.50382 366.113 169.321 6.32866 -0.742248 -0.670126 1 0.5 0 1
163 1 65.1254 43.755 0 65.1254 43.755 0 254.696 -669.449 -32.2417 -19.133 0.266931 -0.963716 1 0.5 0 1
164 1 32.2459 54.0149 0 32.2459 54.0149 0 162.8 -501.576 59.9416 -65.8605 0.963303 -0.268415 1 0.5 0 1
165 1 46.9475 8.99576 0 46.9475 8.99576 0 -332.638 1005.85 64.0235 -91.0829 -0.16135 -0.986897 1 0.5 0 1
166 1 28.7515 33.536 0 28.7515 33.536 0 257.708 314.776 -14.4 -82.9938 -0.947466 0.319856 1 0.5 0 1
167 1 56.8208 21.8328 0 56.8208 21.8328 0 35.7418 -469.769 78.1975 -11.173 0.977357 -0.211595 1 0.5 0 1
168 1 28.4667 3.80623 0 28.4667 83.0722 0 70.1014 -216.516 59.0264 69.0207 -0.244697 0.9696 1 0.5 0 1
169 1 30.5287 6.02597 0 30.5287 85.292 0 297.908 -348.555 35.817 92.6868 -0.361197 0.93249 1 0.5 0 1
170 1 70.5527 68.8723 0 70.5527 68.8723 0 273.784 210.755 -42.1598 29.097 -0.00452404 0.99999 1 0.5 0 1
171 1 9.70953 37.8051 0 88.9755 37.8051 0 77.3796 157.506 -42.1862 -17.149 -0.269881 -0.962894 1 0.5 0 1
172 1 24.5524 51.3386 0 24.5524 -27.9274 0 169.525 479.422 -71.8381 -28.2567 -0.925409 -0.378969 1 0.5 0 1
173 1 51.0333 19.5622 0 51.0333 19.5622 0 -505.286 571.162 21.774 -82.4417 0.242755 -0.970088 1 0.5 0 1
174 1 13.7012 46.9364 0 13.7012 46.9364 0 76.3148 290.723 68.6204 -34.821 -0.628071 0.778156 1 0.5 0 1
175 1 16.9066 78.3757 0 16.9066 -0.890293 0 192.823 -341.767 -45.6501 -98.3795 0.919523 0.393036 1 0.5 0 1
176 1 19.0353 49.4061 0 19.0353 49.4061 0 -497.713 79.3494 -41.774 -58.5182 -0.667772 -0.744366 1 0.5 0 1
177 1 27.6904 72.6702 0 27.6904 72.6702 0 769.354 -42.5733 -1.72005 -56.2448 -0.80853 0.588455 1 0.5 0 1
178 1 60.2234 23.2272 0 -19.0426 102.493 0 472.574 327.931 -30.2216 167.705 -0.991014 -0.133757 1 0.5 0 1
179 1 12.4771 57.7902 0 12.4771 -21.4758 0 265.989 -744.644 -75.396 -76.1261 -0.865445 -0.501004 1 0.5 0 1
180 1 77.5741 39.7327 0 77.5741 39.7327 0 92.2143 33.005 -175.556 127.745 -0.533684 0.845684 1 0.5 0 1
181 1 54.0477 28.3937 0 54.0477 28.3937 0 1075.43 -114.491 36.6646 65.7549 -0.486462 0.873702 1 0.5 0 1
182 1 27.1206 32.2013 0 27.1206 111.467 0 -137.237 32.0438 82.533 -8.46382 -0.933296 -0.359108 1 0.5 0 1
183 1 40.7991 61.85 0 40.7991 -17.416 0 -898.12 389.8 61.5638 14.6357 0.993419 0.11454 1 0.5 0 1
184 1 67.0137 38.0168 0 67.0137 38.0168 0 -21.1333 -327.925 209.741 -133.335 -0.993626 0.112728 1 0.5 0 1
185 1 43.3469 36.9388 0 43.3469 36.9388 0 467.911 712.978 -89.8788 -43.8384 -0.898788 -0.438384 1 0.5 0 1
186 1 25.2277 55.3396 0 25.2277 55.3396 0 -354.76 -1084.79 -38.7573 94.6439 -0.18689 0.982381 1 0.5 0 1
187 1 69.8085 25.6891 0 -9.45752 104.955 0 -202.145 -757.976 -7.5873 99.7117 -0.075873 0.997117 1 0.5 0 1
188 1 79.2216 57.4234 0 79.2216 57.4234 0 377.477 54.0392 -30.9659 36.6048 0.962328 -0.271892 1 0.5 0 1
189 1 10.8498 14.3047 0 10.8498 14.3047 0 149.143 520.43 15.0538 -171.25 0.947989 -0.318302 1 0.5 0 1
190 1 6.45664 69.998 0 6.45664 69.998 0 300.115 98.5758 -74.6934 -50.5696 -0.298988 0.954257 1 0.5 0 1
191 1 18.9737 75.207 0 98.2397 -4.05897 0 228.832 745.384 -95.9069 93.1313 0.985006 0.172523 1 0.5 0 1
192 1 65.7485 32.8888 0 65.7485 32.8888 0 722.182 -408.203 83.0125 24.2797 0.205907 -0.978572 1 0.5 0 1
193 1 78.9227 0.922157 0 -0.34334 0.922157 0 312.729 1128.61 -94.0933 -41.3777 -0.828902 -0.559393 1 0.5 0 1
194 1 38.5514 77.2068 0 38.5514 77.2068 0 392.864 94.3933 -109.36 31.1438 -0.861396 -0.507934 1 0.5 0 1
195 1 51.6656 26.2736 0 51.6656 26.2736 0 532.411 942.901 -32.3519 44.7184 0.862367 0.506283 1 0.5 0 1
196 1 62.9244 35.1401 0 62.9244 35.1401 0 433.675 -559.073 -29.6504 -89.1295 -0.521265 -0.853395 1 0.5 0 1
197 1 1.01877 69.0805 0 1.01877 69.0805 0 102.409 432.885 -8.3688 -122.931 -0.990421 0.138083 1 0.5 0 1
198 1 76.5796 43.1683 0 76.5796 43.1683 0 -74.0111 66.3417 58.6178 -328.989 -0.35309 -0.935589 1 0.5 0 1
199 1 0.247125 24.2427 0 0.247125 24.2427 0 483.861 259.062 -89.677 -73.4171 -0.840477 -0.541847 1 0.5 0 1
200 1 17.8499 64.5258 0 17.8499 64.5258 0 -22.7305 -594.383 -209.989 -32.6331 0.989152 -0.146894 1 0.5 0 1
201 1 20.8749 53.7222 0 20.8749 -25.5438 0 497.483 -168.452 55.1473 -46.8213 -0.999946 -0.0104222 1 0.5 0 1
202 1 52.5689 11.6147 0 -26.6971 11.6147 0 417.42 648.371 14.1109 -67.7277 -0.0294614 -0.999566 1 0.5 0 1
203 1 7.81991 73.1186 0 7.81991 73.1186 0 -497.359 -506.289 18.5992 70.326 -0.68306 0.730362 1 0.5 0 1
204 1 11.6097 23.8363 0 11.6097 23.8363 0 314.024 193.037 46.539 -62.8299 0.999213 0.0396717 1 0.5 0 1
205 1 30.3645 62.7645 0 30.3645 62.7645 0 23.7109 -11.7717 19.6495 70.2644 -0.992234 -0.124382 1 0.5 0 1
206 1 78.4059 62.995 0 -0.860119 -16.271 0 -216.809 -210.463 19.3564 -73.5196 -0.134019 -0.990979 1 0.5 0 1
207 1 16.8134 58.9713 0 16.8134 58.9713 0 218.993 -296.159 -67.6532 5.21166 0.355661 0.934615 1 0.5 0 1
208 1 53.2681 54.7232 0 53.2681 54.7232 0 363.515 -576.804 -57.0553 -25.7192 -0.999998 -0.00211199 1 0.5 0 1
209 1 49.9601 43.999 0 49.9601 43.999 0 382.764 -607.589 -70.6463 47.1818 -0.323184 0.946336 1 0.5 0 1
210 1 15.6562 2.17313 0 15.6562 81.4391 0 -987.803 -46.2296 8.87626 -65.8247 -0.965394 -0.260797 1 0.5 0 1
211 1 64.4585 37.2916 0 64.4585 37.2916 0 403.807 757.292 -56.5934 49.5349 0.016455 0.999865 1 0.5 0 1
212 1 17.0452 77.1227 0 96.3112 -2.14327 0 33.0521 -444.217 63.7189 34.0779 0.995392 0.0958898 1 0.5 0 1
213 1 39.8907 54.6951 0 39.8907 54.6951 0 -668.881 -517.141 90.1468 -2.30918 0.975797 0.218679 1 0.5 0 1
214 1 53.0571 22.8529 0 53.0571 102.119 0 1082.47 -393.365 80.5185 0.948604 0.88804 0.459767 1 0.5 0 1
215 1 14.6556 68.2153 0 14.6556 -11.0507 0 108.073 203.116 -49.9509 49.0801 0.686403 0.727221 1 0.5 0 1
216 1 30.1435 28.721 0 30.1435 107.987 0 -12.2586 -868.261 6.33217 101.64 0.107781 0.994175 1 0.5 0 1
217 1 43.4278 16.3729 0 43.4278 16.3729 0 -87.584 295.086 47.4285 -77.6952 0.174704 -0.984621 1 0.5 0 1
218 1 32.6335 44.2827 0 32.6335 44.2827 0 195.806 253.723 -6.92373 -126.442 0.74876 0.662841 1 0.5 0 1
219 1 55.0953 41.4345 0 55.0953 41.4345 0 284.335 -518.842 24.6091 59.7222 0.100663 -0.994921 1 0.5 0 1
220 1 69.34 72.0205 0 69.34 -7.24546 0 -340.998 759.307 6.80495 22.985 -0.540762 -0.841175 1 0.5 0 1
221 1 34.5148 65.5789 0 34.5148 65.5789 0 -778.643 -5.51879 -29.614 88.0646 -0.197917 0.980219 1 0.5 0 1
222 1 29.2932 52.0957 0 29.2932 -27.1703 0 170.668 792.306 61.6343 -204.341 0.767999 -0.640451 1 0.5 0 1
223 1 76.7188 35.3304 0 -2.54715 35.3304 0 625.618 591.442 -248.251 -19.1943 0.694248 0.719736 1 0.5 0 1
224 1 69.8866 63.8192 0 -9.37935 63.8192 0 215.395 72.2052 -72.0587 112.115 0.434832 0.900512 1 0.5 0 1
225 1 4.67219 58.0274 0 83.9382 -21.2386 0 460.564 -1.13934 -45.7076 -85.8311 0.689951 -0.723856 1 0.5 0 1
226 1 36.9217 6.57804 0 36.9217 6.57804 0 859.76 106.918 -36.4317 -93.1275 -0.364317 -0.931275 1 0.5 0 1
227 1 5.02059 26.5961 0 84.2866 26.5961 0 -32.4909 314.55 48.2648 103.718 0.518824 0.854881 1 0.5 0 1
228 1 0.783728 70.082 0 0.783728 70.082 0 -867.062 -419.492 8.89625 18.1889 -0.49744 -0.867499 1 0.5 0 1
229 1 59.6376 31.1469 0 59.6376 31.1469 0 -209.454 -937.41 -164.815 -103.496 0.950582 0.310475 1 0.5 0 1
230 1 60.4722 29.6612 0 60.4722 108.927 0 -209.66 313.255 -64.7407 97.1556 -0.92284 0.385182 1 0.5 0 1
231 1 60.5058 65.1456 0 60.5058 65.1456 0 -357.44 -129.004 7.13189 146.263 0.970746 0.24011 1 0.5 0 1
232 1 41.9763 48.0218 0 41.9763 -31.2442 0 -396.235 -299.961 27.177 24.4731 0.604296 -0.79676 1 0.5 0 1
233 1 14.637 42.9799 0 14.637 42.9799 0 -53.6356 559.999 -78.3109 15.0154 -0.977834 -0.209382 1 0.5 0 1
234 1 28.3958 67.4213 0 28.3958 -11.8447 0 805.116 871.02 -13.7134 52.3933 -0.985459 0.169913 1 0.5 0 1
235 1 22.9936 63.7112 0 22.9936 63.7112 0 227.1 53.0892 -7.58883 86.4581 0.152217 0.988347 1 0.5 0 1
236 1 74.6366 73.7736 0 74.6366 73.7736 0 129.699 -760.781 100.388 43.3215 0.989399 0.145223 1 0.5 0 1
237 1 54.2416 27.3814 0 54.2416 27.3814 0 418.373 -16.1879 -54.4144 5.53717 0.867151 -0.498045 1 0.5 0 1
238 1 39.0263 61.6276 0 39.0263 61.6276 0 582.194 195.565 45.3277 89.137 0.453277 0.89137 1 0.5 0 1
239 1 7.05531 38.8853 0 86.3213 38.8853 0 -196.667 143.723 94.7723 62.1475 -0.802947 0.59605 1 0.5 0 1
240 1 18.9962 36.3364 0 18.9962 36.3364 0 -91.8061 105.654 68.5109 -53.0514 0.892562 -0.450926 1 0.5 0 1
241 1 47.3038 50.8956 0 47.3038 50.8956 0 338.17 -396.414 26.3959 -116.987 -0.0677127 -0.997705 1 0.5 0 1
242 1 68.5663 69.2318 0 68.5663 -10.0342 0 68.5554 -208.399 -37.676 -12.9068 0.961858 0.27355 1 0.5 0 1
243 1 73.1464 67.2358 0 -6.11961 67.2358 0 1096.75 -239.764 -68.1588 117.144 -0.425787 0.904823 1 0.5 0 1
244 1 36.7039 43.7232 0 36.7039 43.7232 0 23.0976 81.2364 -150.703 -84.6208 0.0760769 0.997102 1 0.5 0 1
245 1 57.3552 43.2661 0 57.3552 43.2661 0 -447.098 807.609 38.79 29.4758 0.773185 -0.63418 1 0.5 0 1
246 1 34.4248 34.5333 0 34.4248 34.5333 0 -405.737 520.353 112.092 -31.1045 0.996677 -0.081452 1 0.5 0 1
247 1 67.233 50.4943 0 67.233 -28.7717 0 -871.957 -919.92 180.364 -83.9416 -0.967172 -0.254121 1 0.5 0 1
248 1 59.929 8.6596 0 -19.337 87.9256 0 -259.531 1435.43 24.9707 13.9162 -0.358654 0.933471 1 0.5 0 1
249 1 59.7337 16.8778 0 59.7337 16.8778 0 566.824 -121.762 -85.0323 -86.4018 0.995842 0.091098 1 0.5 0 1
250 1 18.7429 57.0986 0 98.0089 57.0986 0 -234.207 -322.268 -82.6872 -160.138 0.237331 0.971429 1 0.5 0 1
251 1 49.2785 36.8854 0 49.2785 116.151 0 439.569 -459.693 31.1422 103.925 0.216168 0.976356 1 0.5 0 1
252 1 21.2657 63.9625 0 21.2657 63.9625 0 -928.688 127.489 129.162 86.757 -0.0161167 0.99987 1 0.5 0 1
253 1 25.7452 56.9339 0 25.7452 56.9339 0 629.271 41.3834 26.9642 2.14733 0.568038 0.823002 1 0.5 0 1
254 1 47.263 78.0879 0 47.263 78.0879 0 -37.1408 -60.0389 72.1833 64.1021 0.383972 0.923345 1 0.5 0 1
255 1 8.2435 24.0482 0 87.5095 103.314 0 224.233 167.672 -6.35115 21.2159 -0.86439 0.502822 1 0.5 0 1
256 1 72.3109 39.5282 0 -6.9551 39.5282 0 635.857 327.551 92.6385 -19.5822 -0.0358025 -0.999359 1 0.5 0 1
257 1 14.9849 28.1161 0 14.9849 107.382 0 196.528 555.069 -185.106 -52.1287 -0.80699 0.590566 1 0.5 0 1
258 1 38.143 76.17 0 38.143 -3.09602 0 -285.173 -612.693 68.8991 -9.6898 0.631738 -0.775182 1 0.5 0 1
259 1 15.056 19.3316 0 94.322 19.3316 0 -319.658 -63.909 50.3702 75.6612 0.678442 0.734654 1 0.5 0 1
260 1 13.0002 34.5829 0 92.2662 34.5829 0 714.306 184.231 -33.1941 -54.5303 0.311904 -0.950113 1 0.5 0 1
261 1 14.2297 14.1748 0 14.2297 14.1748 0 -172.072 1030.69 -33.7689 -72.2133 -0.213227 -0.977003 1 0.5 0 1
262 1 47.2548 7.98658 0 126.521 7.98658 0 569.252 -135.36 -17.6066 13.8823 0.900491 -0.434875 1 0.5 0 1
263 1 62.8059 73.9432 0 -16.4601 -5.32279 0 322.744 209.662 -89.1843 76.9056 -0.840059 -0.542495 1 0.5 0 1
264 1 12.3636 29.6775 0 91.6296 29.6775 0 -801.132 -320.909 -17.9675 -82.788 0.99962 0.0275777 1 0.5 0 1
265 1 17.374 0.0215677 0 17.374 79.2876 0 132.894 -1424.71 57.4542 55.4981 0.620137 0.784493 1 0.5 0 1
266 1 57.5356 47.3503 0 57.5356 47.3503 0 -62.4741 507.061 40.4615 4.16004 0.839351 -0.543589 1 0.5 0 1
267 1 16.1433 5.13452 0 16.1433 5.13452 0 186.402 -123.167 53.9763 -113.419 -0.9624 0.271636 1 0.5 0 1
268 1 72.2307 67.7091 0 72.2307 67.7091 0 -75.8345 220.274 20.4657 20.7886 0.16021 -0.987083 1 0.5 0 1
269 1 47.1777 5.67926 0 126.444 5.67926 0 -146.491 -555.343 -78.1052 151.629 0.887299 0.461195 1 0.5 0 1
270 1 28.8824 4.8099 0 108.148 4.8099 0 196.417 245.184 -2.31694 -57.2825 0.744899 -0.667177 1 0.5 0 1
271 1 48.0095 33.1335 0 48.0095 33.1335 0 92.7328 200.259 83.7009 -54.7188 0.837009 -0.547188 1 0.5 0 1
272 1 58.6292 30.708 0 58.6292 30.708 0 -861.466 -293.264 134.674 161.91 0.0645683 0.997913 1 0.5 0 1
273 1 60.7907 43.9746 0 60.7907 43.9746 0 -296.339 1025.89 -88.6563 -116.277 0.844197 -0.536033 1 0.5 0 1
274 1 31.3664 61.0677 0 31.3664 -18.1983 0 512.527 267.778 41.0846 -35.1705 -0.718751 -0.695267 1 0.5 0 1
275 1 59.2276 2.15081 0 59.2276 2.15081 0 612.861 -278.38 81.1622 58.4184 0.811622 0.584184 1 0.5 0 1
276 1 60.7634 38.9138 0 60.7634 38.9138 0 -690.249 -537.913 -17.4581 119.382 0.997717 -0.0675267 1 0.5 0 1
277 1 53.1746 42.7935 0 -26.0914 42.7935 0 -118.48 -448.229 -96.8832 -26.7289 -0.963669 -0.267099 1 0.5 0 1
278 1 3.45094 76.1859 0 3.45094 76.1859 0 -30.8306 315.774 -55.8612 50.3501 -0.243045 0.970015 1 0.5 0 1
279 1 9.38347 33.3929 0 88.6495 33.3929 0 62.3464 -274.402 -121.648 -20.1709 0.951093 -0.308903 1 0.5 0 1
280 1 63.8495 69.4974 0 63.8495 -9.7686 0 -34.1559 -34.8805 -41.6267 -10.7328 -0.365232 -0.930916 1 0.5 0 1
281 1 67.1675 53.6442 0 67.1675 53.6442 0 -587.289 1134.61 62.3157 44.1624 0.851572 -0.524238 1 0.5 0 1
282 1 38.7504 71.2847 0 38.7504 -7.98125 0 248.768 -486.463 46.5949 -88.4812 0.465949 -0.884812 1 0.5 0 1
283 1 1.42386 17.9958 0 1.42386 97.2618 0 -285.008 -54.7785 -48.8721 -11.5653 -0.871575 0.490263 1 0.5 0 1
284 1 64.6959 12.5448 0 -14.5701 91.8108 0 -606.863 553.333 242.935 49.8742 -0.521052 0.853525 1 0.5 0 1
285 1 71.7512 30.8856 0 71.7512 30.8856 0 135.678 350.532 57.2346 -2.6515 0.498266 -0.867024 1 0.5 0 1