ITEM: TIMESTEP
420000
ITEM: NUMBER OF ATOMS
4000
ITEM: BOX BOUNDS pp pp pp
0.0000000000000000e+00 7.9266000000000005e+01
0.0000000000000000e+00 7.9266000000000005e+01
-5.0000000000000000e-01 5.0000000000000000e-01
ITEM: ATOMS id type x y z xu yu zu vx vy fx fy mux muy mu radius omegaz mass
1 1 5.87666 65.1978 0 85.1427 65.1978 0 -40.2682 -70.3068 -10.4966 78.9989 -0.322756 -0.946482 1 0.5 0 1
2 1 61.4672 19.3104 0 61.4672 19.3104 0 -307.059 -330.129 -197.839 58.8449 0.306826 -0.951766 1 0.5 0 1
3 1 16.0524 33.7005 0 16.0524 -45.5655 0 -371.899 408.679 94.7138 -12.1724 0.920435 -0.390896 1 0.5 0 1
4 1 2.27498 16.1353 0 2.27498 16.1353 0 542.431 807.303 40.1687 -115.346 -0.911962 0.410274 1 0.5 0 1
5 1 1.52523 32.4269 0 1.52523 32.4269 0 0.443325 -233.915 -19.0917 -133.244 -0.472749 0.881197 1 0.5 0 1
6 1 68.6031 30.3244 0 -10.6629 30.3244 0 150.449 14.6872 -150.909 78.6711 0.388284 0.92154 1 0.5 0 1
7 1 66.8676 50.563 0 66.8676 50.563 0 818.471 863.328 -92.1349 -110.564 0.158704 0.987326 1 0.5 0 1
8 1 16.7272 34.8069 0 16.7272 -44.4591 0 -658.688 -703.96 -2.9364 -66.1897 -0.978242 -0.207466 1 0.5 0 1
9 1 67.2191 28.0931 0 67.2191 28.0931 0 -536.818 482.358 3.53795 15.1101 -0.98519 -0.171466 1 0.5 0 1
10 1 21.4722 54.0478 0 21.4722 54.0478 0 -497.944 -380.91 -34.173 7.43075 -0.73743 -0.675423 1 0.5 0 1
11 1 66.1076 13.0546 0 -92.4244 13.0546 0 157.234 77.1834 -2.00426 15.1303 -0.0992977 0.995058 1 0.5 0 1
12 1 78.6206 23.4615 0 78.6206 102.727 0 -177.436 -851.846 -51.2417 107.609 -0.994535 -0.104403 1 0.5 0 1
13 1 78.0557 67.4206 0 78.0557 -11.8454 0 -816.611 139.951 53.5128 20.9961 -0.687905 0.725801 1 0.5 0 1
14 1 15.7126 42.0554 0 -142.819 42.0554 0 -306.085 -4.78103 -35.6304 38.6404 -0.959484 -0.281765 1 0.5 0 1
15 1 10.3195 35.345 0 10.3195 35.345 0 -537.353 -103.674 3.17421 -5.09166 -0.460589 0.887614 1 0.5 0 1
16 1 15.7178 51.4725 0 -63.5482 -27.7935 0 -208.191 -482.754 -34.8159 60.4729 -0.98706 0.160351 1 0.5 0 1
17 1 40.6473 40.5513 0 119.913 119.817 0 251.093 -458.785 -97.3928 -79.7739 0.716884 -0.697192 1 0.5 0 1
18 1 72.2925 73.9758 0 -6.97352 -5.29016 0 267.6 -495.239 247.481 -230.513 -0.0197692 -0.999805 1 0.5 0 1
19 1 4.15395 42.8104 0 4.15395 42.8104 0 515.766 -82.9916 -154.158 78.064 0.57868 0.815555 1 0.5 0 1
20 1 16.2172 58.6908 0 16.2172 58.6908 0 717.612 -576.406 -131.933 106.693 0.547058 -0.837095 1 0.5 0 1
21 1 2.44768 29.0317 0 2.44768 29.0317 0 -242.449 -34.6835 69.9348 66 0.740805 0.67172 1 0.5 0 1
22 1 0.85813 22.1862 0 80.1241 22.1862 0 663.285 2.71338 -89.5862 -159.504 -0.999288 -0.037732 1 0.5 0 1
23 1 39.5914 44.9699 0 118.857 44.9699 0 -190.032 328.611 -113.907 -8.4098 -0.0200497 -0.999799 1 0.5 0 1
24 1 66.7385 57.6151 0 66.7385 -21.6509 0 13.3812 227.894 -154.265 49.5764 0.0855765 -0.996332 1 0.5 0 1
25 1 47.3149 29.6065 0 -31.9511 -49.6595 0 113.197 -170.288 -111.811 48.611 0.594273 -0.804264 1 0.5 0 1
26 1 51.6273 58.776 0 51.6273 -99.756 0 -581.288 -240.053 -132.557 -179.106 0.940871 0.338764 1 0.5 0 1
27 1 73.3869 19.7853 0 -5.87907 99.0513 0 199.713 448.736 12.1621 -2.00786 -0.977111 -0.212729 1 0.5 0 1
28 1 14.7924 68.981 0 14.7924 68.981 0 -856.802 -576.548 -33.1631 -15.0246 -0.983389 -0.181513 1 0.5 0 1
29 1 74.0712 39.3536 0 -5.19482 39.3536 0 -84.4331 1132.33 -4.15714 14.962 -0.841589 -0.540119 1 0.5 0 1
30 1 0.273214 9.51925 0 79.5392 88.7853 0 147.342 -304.353 34.349 -84.0806 0.915007 0.403437 1 0.5 0 1
31 1 73.2427 27.2097 0 -6.02329 27.2097 0 71.764 784.245 -60.7646 34.2496 -0.869503 0.493927 1 0.5 0 1
32 1 2.49181 17.1579 0 2.49181 17.1579 0 16.0024 -86.0442 -54.3182 55.8722 0.375102 0.926984 1 0.5 0 1
33 1 65.29 58.9782 0 65.29 -20.2878 0 600.707 144.023 -235.039 -39.8369 -0.211402 -0.977399 1 0.5 0 1
34 1 6.35099 47.1157 0 85.617 47.1157 0 -285.088 17.5604 53.6879 46.93 -0.553439 0.83289 1 0.5 0 1
35 1 43.5505 36.963 0 -35.7155 36.963 0 809.281 255.537 -103.266 -109.88 0.709856 0.704347 1 0.5 0 1
36 1 59.9044 59.2521 0 59.9044 -20.0139 0 717.335 -245.226 -8.66795 25.478 0.372054 0.928211 1 0.5 0 1
37 1 69.5742 43.4077 0 69.5742 43.4077 0 -773.351 39.5334 203.565 71.5817 -0.615026 0.788507 1 0.5 0 1
38 1 0.557035 13.5043 0 159.089 92.7703 0 87.9711 -273.118 -110.503 -10.0996 0.998579 -0.0532863 1 0.5 0 1
39 1 7.85696 24.3232 0 87.123 -54.9428 0 -243.816 -127.659 13.0477 109.897 0.465042 -0.885289 1 0.5 0 1
40 1 55.6608 18.6992 0 -23.6052 97.9652 0 56.8404 -621.177 31.8402 148.336 0.584793 0.811183 1 0.5 0 1
41 1 69.249 53.0438 0 69.249 53.0438 0 -107.185 208.591 86.9484 0.338242 0.455743 -0.890111 1 0.5 0 1
42 1 75.4922 60.3255 0 -3.77385 60.3255 0 -199.59 -97.1279 -18.1126 212.292 0.126926 -0.991912 1 0.5 0 1
43 1 78.8317 16.0672 0 -79.7003 95.3332 0 447.298 -61.1986 -8.63485 118.466 -0.139864 -0.990171 1 0.5 0 1
44 1 64.6951 21.0173 0 64.6951 100.283 0 -286.639 -182.986 -15.9033 -40.7732 0.397557 0.917577 1 0.5 0 1
45 1 14.3652 67.2031 0 14.3652 -91.3289 0 -676.295 195.752 105.653 -63.653 0.259916 -0.965631 1 0.5 0 1
46 1 5.36987 44.0739 0 5.36987 44.0739 0 -92.5354 -497.513 93.154 174.919 -0.897629 -0.440752 1 0.5 0 1
47 1 58.603 61.5439 0 58.603 -17.7221 0 -720.815 -403.601 -173.803 52.2008 -0.858253 -0.513227 1 0.5 0 1
48 1 12.6976 46.9045 0 12.6976 46.9045 0 -307.656 8.66421 -129.866 -33.8484 0.996594 -0.0824679 1 0.5 0 1
49 1 38.7145 57.8166 0 38.7145 57.8166 0 -115.96 -226.7 76.6019 -64.2817 0.766019 -0.642817 1 0.5 0 1
50 1 55.3032 17.7636 0 -23.9628 17.7636 0 -297.915 145.911 -74.7944 -40.4262 -0.390674 0.920529 1 0.5 0 1
51 1 62.5741 72.0779 0 -95.9579 -7.18808 0 802.962 -1030.66 -47.5839 15.503 -0.686603 -0.727032 1 0.5 0 1
52 1 2.81612 33.7196 0 82.0821 33.7196 0 -33.7564 -208.188 10.8615 -0.0452714 0.643755 0.765232 1 0.5 0 1
53 1 13.5433 56.2447 0 13.5433 135.511 0 13.4908 947.996 191.173 -15.9683 -0.875096 -0.483949 1 0.5 0 1
54 1 52.7982 30.5821 0 52.7982 30.5821 0 69.182 88.9232 25.0189 169.684 0.00915606 0.999958 1 0.5 0 1
55 1 14.9933 42.7749 0 94.2593 122.041 0 -174.345 -458.04 18.5408 5.85242 -0.641388 -0.767216 1 0.5 0 1
56 1 42.2175 39.2703 0 42.2175 39.2703 0 -399.99 116.885 137.148 33.8816 0.739425 0.673239 1 0.5 0 1
57 1 11.3066 22.7767 0 11.3066 102.043 0 12.738 411.584 -67.6084 -56.8493 -0.984008 0.178124 1 0.5 0 1
58 1 66.4814 28.8072 0 -12.7846 28.8072 0 247.064 491.071 -38.2976 178.363 -0.973475 0.228792 1 0.5 0 1
59 1 51.9406 34.9271 0 51.9406 34.9271 0 653.744 -278.389 -49.0065 32.6526 0.005762 -0.999983 1 0.5 0 1
60 1 56.0009 41.8533 0 56.0009 41.8533 0 -405.165 480.511 98.676 -67.7224 0.992354 -0.123426 1 0.5 0 1
61 1 58.4731 45.2986 0 58.4731 45.2986 0 339.622 -256.758 20.1647 147.263 -0.00177629 -0.999998 1 0.5 0 1
62 1 56.9354 19.9898 0 136.201 19.9898 0 411.283 173.546 -23.3577 -108.497 0.999596 0.0284093 1 0.5 0 1
63 1 13.5321 62.7782 0 -65.7339 -16.4878 0 -944.129 -654.145 51.3212 61.2658 0.0559859 0.998432 1 0.5 0 1
64 1 36.591 31.7154 0 115.857 110.981 0 -689.633 480.284 -56.5042 82.5062 -0.565042 0.825062 1 0.5 0 1
65 1 43.3381 32.1082 0 201.87 111.374 0 141.664 82.5386 -53.1258 66.7435 0.998265 0.0588874 1 0.5 0 1
66 1 13.9976 45.3701 0 93.2636 124.636 0 -174.913 185.187 3.63553 -24.8389 0.572592 0.819841 1 0.5 0 1
67 1 53.7065 43.8137 0 53.7065 43.8137 0 155.557 -909.323 15.6956 211.205 -0.268073 -0.963399 1 0.5 0 1
68 1 14.2429 39.8891 0 14.2429 39.8891 0 -245.203 255.046 -19.5067 -112.598 -0.271258 -0.962507 1 0.5 0 1
69 1 53.7286 21.7253 0 53.7286 21.7253 0 -207.482 173.761 -174.896 -144.674 0.997056 0.0766792 1 0.5 0 1
70 1 48.2443 38.3185 0 48.2443 117.584 0 78.5714 2.66823 148.789 -153.539 0.550143 -0.835071 1 0.5 0 1
71 1 56.436 16.8205 0 135.702 16.8205 0 288.912 -200.239 -104.525 32.7973 0.078029 0.996951 1 0.5 0 1
72 1 6.09148 58.7883 0 6.09148 58.7883 0 755.122 141.791 55.5507 84.6108 0.872052 -0.489413 1 0.5 0 1
73 1 4.15489 13.7734 0 4.15489 13.7734 0 254.192 487.958 -64.0559 -49.1947 -0.846598 -0.532233 1 0.5 0 1
74 1 57.3494 21.9927 0 57.3494 101.259 0 -370.85 285.513 -13.7191 56.7274 0.92706 -0.374913 1 0.5 0 1
75 1 75.7741 39.0006 0 -3.49188 39.0006 0 -128.221 344.803 -317.614 -153.977 0.999586 -0.0287843 1 0.5 0 1
76 1 34.2889 28.9921 0 -44.9771 28.9921 0 703.988 -351.84 -31.2239 22.8845 -0.944082 0.329711 1 0.5 0 1
77 1 78.124 35.1906 0 -1.14203 35.1906 0 257.088 303.229 -78.9198 -12.6752 0.999556 0.0297818 1 0.5 0 1
78 1 60.5719 16.4159 0 60.5719 95.6819 0 514.202 -491.25 -13.9237 56.4823 0.371882 -0.92828 1 0.5 0 1
79 1 44.4213 54.8805 0 -34.8447 54.8805 0 279.911 393.032 15.7699 41.9608 0.994637 0.103431 1 0.5 0 1
80 1 78.5386 27.0709 0 -0.727411 -52.1951 0 296.813 66.3549 108.4 67.2805 -0.429781 -0.902933 1 0.5 0 1
81 1 47.6532 35.2665 0 126.919 35.2665 0 260.951 812.71 -114.467 -86.5005 0.983754 0.17952 1 0.5 0 1
82 1 0.95585 39.5612 0 0.95585 39.5612 0 -462.798 -78.683 -18.161 -51.4982 0.573126 0.819467 1 0.5 0 1
83 1 41.5811 40.9275 0 120.847 120.193 0 1278.46 -622.791 -5.5504 -56.8116 -0.765506 0.643429 1 0.5 0 1
84 1 76.928 44.782 0 -2.33798 44.782 0 -277.746 551.773 49.0548 -279.305 -0.618004 -0.786175 1 0.5 0 1
85 1 2.03791 6.3138 0 2.03791 6.3138 0 985.281 -728.5 -64.1299 -49.0527 -0.855996 -0.516982 1 0.5 0 1
86 1 10.7583 40.9611 0 10.7583 40.9611 0 -1301.09 -316.815 162.91 13.0684 -0.775439 -0.631422 1 0.5 0 1
87 1 9.36981 42.4512 0 9.36981 42.4512 0 -648.648 189.739 219.26 -80.7475 -0.109937 -0.993939 1 0.5 0 1
88 1 21.5206 2.51971 0 21.5206 2.51971 0 716.836 -60.6297 10.6169 99.4348 0.106169 0.994348 1 0.5 0 1
89 1 22.9542 51.705 0 22.9542 -27.561 0 -315.677 -62.5658 -16.5138 -26.9512 -0.706505 -0.707708 1 0.5 0 1
90 1 4.17767 38.8435 0 4.17767 38.8435 0 1298.46 201.555 -260.505 46.4216 -0.987981 -0.154573 1 0.5 0 1
91 1 17.8856 59.689 0 17.8856 -19.577 0 -139.503 555.199 42.5651 3.24741 0.80724 -0.590223 1 0.5 0 1
92 1 4.53039 56.5812 0 4.53039 56.5812 0 924.521 608.884 198.6 -19.4675 0.964056 0.265701 1 0.5 0 1
93 1 2.01644 47.7459 0 2.01644 47.7459 0 728.747 230.577 77.2737 58.8646 -0.837267 0.546794 1 0.5 0 1
94 1 70.1524 37.1549 0 70.1524 37.1549 0 -385.185 135.204 25.6657 -4.07386 0.0309421 -0.999521 1 0.5 0 1
95 1 66.6285 49.5927 0 66.6285 49.5927 0 -513.122 308.064 127.562 130.027 -0.483197 0.875512 1 0.5 0 1
96 1 53.4953 42.8421 0 53.4953 42.8421 0 -465.335 -1038.38 147.439 82.8088 -0.862703 -0.505711 1 0.5 0 1
97 1 53.9679 69.6237 0 53.9679 -88.9083 0 -28.3823 -380.948 63.2834 6.44433 0.0801289 -0.996785 1 0.5 0 1
98 1 18.0717 50.2365 0 18.0717 50.2365 0 70.2404 -53.6096 130.865 71.2888 -0.999889 -0.0148933 1 0.5 0 1
99 1 45.0869 40.1917 0 45.0869 -39.0743 0 -650.906 191.299 9.22496 70.3191 0.495208 0.868775 1 0.5 0 1
100 1 72.4451 44.2743 0 72.4451 44.2743 0 -93.3776 -333.874 -40.6976 21.3262 -0.0160422 -0.999871 1 0.5 0 1
101 1 49.2426 48.0223 0 49.2426 -31.2437 0 -216.887 611.581 -30.6004 -68.2921 0.418463 0.908234 1 0.5 0 1
102 1 78.4136 43.4562 0 -0.852434 43.4562 0 23.6242 575.928 -53.6797 -145.018 -0.783828 -0.620978 1 0.5 0 1
103 1 25.1628 53.4003 0 -133.369 132.666 0 287.455 -377.946 26.7559 36.408 -0.840559 -0.54172 1 0.5 0 1
104 1 52.9638 44.5068 0 52.9638 123.773 0 -192.083 -248.297 240.945 -43.186 0.96404 0.265759 1 0.5 0 1
105 1 17.1814 26.9183 0 17.1814 26.9183 0 24.0871 -184.129 29.7902 -51.6718 -0.16854 0.985695 1 0.5 0 1
106 1 21.9129 32.8246 0 21.9129 -46.4414 0 140.283 -163.535 -95.8508 -28.5066 -0.958508 -0.285066 1 0.5 0 1
107 1 61.4858 38.079 0 61.4858 38.079 0 -132.242 -44.8339 -31.8146 152.609 0.925902 0.377763 1 0.5 0 1
108 1 78.7689 37.2488 0 -0.497051 116.515 0 -299.768 1674.26 -51.0377 -172.862 -0.532062 -0.846705 1 0.5 0 1
109 1 21.652 29.5475 0 -57.614 108.813 0 963.666 67.8499 58.5699 81.0529 0.585699 0.810529 1 0.5 0 1
110 1 50.3979 31.5958 0 50.3979 31.5958 0 524.246 182.771 -27.3855 -101.253 0.658953 0.752184 1 0.5 0 1
111 1 73.8446 14.3458 0 73.8446 93.6118 0 -368.283 -280.961 -13.1263 96.7235 0.50339 0.864059 1 0.5 0 1
112 1 11.9132 50.3546 0 11.9132 50.3546 0 319.632 582.249 1.34525 72.7212 0.982999 0.183612 1 0.5 0 1
113 1 11.8518 26.9532 0 -67.4142 106.219 0 1345.54 -20.7742 -164.878 77.6173 -0.881545 0.4721 1 0.5 0 1
114 1 53.6639 55.5807 0 53.6639 55.5807 0 121.23 -257.943 33.4085 35.2722 0.646511 -0.762905 1 0.5 0 1
115 1 40.5046 45.3933 0 40.5046 -33.8727 0 -84.472 440.52 120.385 35.1843 0.897299 0.441424 1 0.5 0 1
116 1 59.6498 72.11 0 59.6498 -86.422 0 -157.399 575.012 -48.9495 52.3957 -0.0960786 -0.995374 1 0.5 0 1
117 1 64.5611 67.9318 0 64.5611 -11.3342 0 162.037 -167.461 5.1134 -152.429 0.995317 -0.0966601 1 0.5 0 1
118 1 54.2873 42.2114 0 54.2873 42.2114 0 857.009 83.2045 -41.6821 -17.0398 0.856448 -0.516233 1 0.5 0 1
119 1 33.1204 68.871 0 191.652 -10.395 0 -1317.19 271.166 69.18 -72.2089 0.6918 -0.722089 1 0.5 0 1
120 1 44.4702 51.1709 0 123.736 -28.0951 0 85.6028 -198.177 83.6632 64.2109 -0.0685398 -0.997648 1 0.5 0 1
121 1 55.4614 5.81667 0 -103.071 5.81667 0 -69.0024 192.657 42.6922 -90.4288 0.426922 -0.904288 1 0.5 0 1
122 1 24.8394 45.8673 0 24.8394 125.133 0 -52.2502 206.447 99.7124 7.57898 0.997124 0.0757898 1 0.5 0 1
123 1 73.3998 31.8229 0 -5.86618 31.8229 0 368.037 446.878 -73.2118 123.769 -0.595002 0.803724 1 0.5 0 1
124 1 25.4549 55.7712 0 -53.8111 -23.4948 0 191.173 -188.389 0.661516 -35.2257 -0.659195 -0.751972 1 0.5 0 1
125 1 64.8282 29.26 0 64.8282 29.26 0 743.869 -435.384 -324.049 -134.078 -0.913356 0.407161 1 0.5 0 1
126 1 8.64325 35.7242 0 87.9093 114.99 0 -345.345 255.052 -75.5909 164.057 0.947454 -0.319893 1 0.5 0 1
127 1 57.2845 31.3724 0 57.2845 110.638 0 -51.3582 121.4 103.603 145.436 -0.409098 0.91249 1 0.5 0 1
128 1 1.76645 26.112 0 -77.4996 26.112 0 -241.85 428.936 3.78894 17.9952 -0.905704 0.423912 1 0.5 0 1
129 1 68.4046 57.2653 0 68.4046 -22.0007 0 218.691 433.163 -20.4545 250.641 -0.975303 0.220873 1 0.5 0 1
130 1 74.5523 56.5123 0 74.5523 -22.7537 0 -77.5103 529.93 42.0016 262.207 -0.96275 -0.270393 1 0.5 0 1
131 1 2.36318 72.4128 0 2.36318 72.4128 0 -262.694 650.778 168.147 24.4474 -0.286467 -0.95809 1 0.5 0 1
132 1 59.3833 33.0281 0 -19.8827 112.294 0 -85.3669 -66.9168 174.735 37.3221 0.59181 0.806078 1 0.5 0 1
133 1 16.6886 51.7013 0 16.6886 130.967 0 491.012 23.6898 76.3412 181.595 -0.985285 -0.170918 1 0.5 0 1
134 1 12.0143 38.4897 0 12.0143 38.4897 0 -350.995 806.31 81.5556 -72.3691 -0.126339 -0.991987 1 0.5 0 1
135 1 19.6029 57.2758 0 19.6029 136.542 0 -310.596 -901.608 148.847 -66.7994 -0.0958397 0.995397 1 0.5 0 1
136 1 26.4131 9.6059 0 105.679 168.138 0 -205.362 366.523 60.963 93.923 0.205411 0.978676 1 0.5 0 1
137 1 36.8856 40.8264 0 116.152 40.8264 0 333.752 351.962 -36.5299 111.027 0.994307 -0.106552 1 0.5 0 1
138 1 47.6393 53.0557 0 -31.6267 -26.2103 0 -409.063 -62.4424 87.0999 5.58849 -0.252666 0.967554 1 0.5 0 1
139 1 43.8185 43.5701 0 43.8185 -35.6959 0 -466.2 -180.259 96.0749 214.874 -0.526066 -0.850444 1 0.5 0 1
140 1 3.92327 12.7247 0 3.92327 12.7247 0 550.34 306.885 -52.3036 -37.1255 -0.927387 0.374104 1 0.5 0 1
141 1 11.4625 58.4725 0 11.4625 58.4725 0 305.392 149.395 -71.4662 -47.8251 0.590776 -0.806835 1 0.5 0 1
142 1 21.5023 36.0567 0 -57.7637 115.323 0 -244.71 155.458 16.9152 98.559 0.169152 0.98559 1 0.5 0 1
143 1 10.5679 36.3047 0 10.5679 115.571 0 -65.6622 -110.672 39.5782 208.544 0.243292 0.969953 1 0.5 0 1
144 1 17.7196 30.9167 0 17.7196 30.9167 0 412.695 12.2771 10.3592 -53.603 -0.316508 -0.94859 1 0.5 0 1
145 1 14.9451 65.4707 0 94.2111 65.4707 0 235.677 -883.066 1.47262 85.9983 0.62509 -0.780552 1 0.5 0 1
146 1 60.8591 63.1272 0 60.8591 -16.1388 0 -445.492 569.538 82.8082 -122.21 0.903052 -0.429532 1 0.5 0 1
147 1 1.77816 68.3867 0 81.0442 -10.8793 0 -149.134 211.858 115.715 127.821 -0.967265 0.253768 1 0.5 0 1
148 1 50.7634 59.5045 0 130.029 59.5045 0 57.1211 -423.85 98.0422 -83.7059 -0.434156 0.900838 1 0.5 0 1
149 1 70.7156 31.8999 0 70.7156 111.166 0 347.642 -383.093 130.9 -6.43011 -0.999813 -0.0193239 1 0.5 0 1
150 1 66.586 36.9521 0 -12.68 36.9521 0 132.024 -77.5436 92.6155 168.244 0.828594 0.55985 1 0.5 0 1
151 1 5.09008 58.5125 0 84.3561 -20.7535 0 415.415 -433.262 -45.4652 21.1874 -0.122542 -0.992463 1 0.5 0 1
152 1 64.2141 65.9386 0 64.2141 65.9386 0 -243.206 -151.639 -132.6 2.79345 0.250974 -0.967994 1 0.5 0 1
153 1 77.3402 60.0261 0 77.3402 60.0261 0 363.137 -129.217 -94.5628 -29.8087 0.886259 0.46319 1 0.5 0 1
154 1 3.91383 50.9477 0 3.91383 50.9477 0 -334.041 -108.108 89.999 128.109 0.600557 0.799582 1 0.5 0 1
155 1 70.934 68.0435 0 -87.598 -11.2225 0 102.732 -774.639 -48.9606 138.57 0.156511 0.987676 1 0.5 0 1
156 1 74.4025 48.4701 0 74.4025 48.4701 0 -32.9394 617.253 -151.444 83.3751 -0.897439 -0.441139 1 0.5 0 1
157 1 4.66932 30.6706 0 4.66932 30.6706 0 -1055.73 -226.02 104.042 44.2576 0.973012 0.230753 1 0.5 0 1
158 1 67.1714 39.8442 0 -12.0946 39.8442 0 -706.202 -175.631 -24.7662 246.51 0.896056 -0.443941 1 0.5 0 1
159 1 5.31471 15.189 0 5.31471 94.455 0 -702.257 -425.53 17.7626 -15.9104 -0.874145 0.485665 1 0.5 0 1
160 1 58.7556 16.7751 0 58.7556 16.7751 0 -715.114 593.201 24.658 -22.7837 0.939298 0.343102 1 0.5 0 1
161 1 13.6376 13.1116 0 13.6376 -66.1544 0 393.024 347.552 -85.0192 -28.8318 -0.910731 -0.413 1 0.5 0 1
162 1 7.38054 53.6459 0 7.38054 53.6459 0 -391.913 426.969 -32.4706 -28.2325 -0.702032 -0.712146 1 0.5 0 1
163 1 63.2804 50.3442 0 63.2804 50.3442 0 428.821 158.255 -135.818 -223.937 0.986155 0.165824 1 0.5 0 1
164 1 58.3897 64.1837 0 58.3897 -15.0823 0 -328.156 -58.2024 175.048 -30.6151 0.998105 -0.0615337 1 0.5 0 1
165 1 40.8261 6.74287 0 40.8261 86.0089 0 1332.76 -300.439 69.1866 72.2026 0.691866 0.722026 1 0.5 0 1
166 1 10.3373 45.4356 0 10.3373 45.4356 0 457.299 -638.847 207.213 -41.1994 0.433639 0.901087 1 0.5 0 1
167 1 64.0788 29.9286 0 64.0788 29.9286 0 372.371 -412.073 133.221 75.6298 0.58503 -0.811012 1 0.5 0 1
168 1 13.0486 65.8378 0 -66.2174 65.8378 0 386.944 215.755 -33.2899 90.0098 -0.445196 -0.895433 1 0.5 0 1
169 1 22.5918 56.3985 0 -56.6742 135.664 0 -338.791 707.636 79.6638 -142.174 -0.728877 -0.684645 1 0.5 0 1
170 1 20.564 56.9063 0 99.83 136.172 0 482.431 -455.45 212.398 83.994 0.998797 -0.0490375 1 0.5 0 1
171 1 61.0903 68.7372 0 140.356 -10.5288 0 -342.119 86.0827 187.456 -6.24202 0.999996 0.00270389 1 0.5 0 1
172 1 9.76329 58.9575 0 9.76329 -20.3085 0 -66.6545 540.139 -7.26282 20.0142 0.562786 -0.826603 1 0.5 0 1
173 1 52.7876 18.9732 0 52.7876 -60.2928 0 -99.3208 -81.8055 8.16428 31.4804 0.758868 0.651244 1 0.5 0 1
174 1 10.7395 52.7666 0 10.7395 52.7666 0 -66.0618 -602.773 -85.9166 37.6782 -0.987586 -0.157079 1 0.5 0 1
175 1 55.9937 66.4366 0 -23.2723 -12.8294 0 127.576 -70.7176 96.8475 -128.524 0.814563 0.580075 1 0.5 0 1
176 1 12.2002 51.3837 0 12.2002 51.3837 0 -628.893 5.67443 -76.9529 -57.9027 0.887201 0.461383 1 0.5 0 1
177 1 3.8554 70.1265 0 3.8554 70.1265 0 -412.461 997.089 113.614 158.793 -0.526325 -0.850283 1 0.5 0 1
178 1 56.9373 29.3763 0 -22.3287 108.642 0 882.001 -636.725 12.7764 -3.75055 -0.969223 -0.246186 1 0.5 0 1
179 1 5.55798 56.8232 0 5.55798 -22.4428 0 435.074 390.404 -307.823 -150.203 0.838806 -0.54443 1 0.5 0 1
180 1 73.6921 41.9652 0 73.6921 41.9652 0 376.272 219.231 61.4867 -118.522 -0.801035 -0.598618 1 0.5 0 1
181 1 77.3585 11.8068 0 77.3585 11.8068 0 403.009 -382.059 7.37881 42.9612 0.880903 0.473296 1 0.5 0 1
182 1 6.78126 71.4785 0 -72.4847 71.4785 0 444.541 155.491 -40.8742 14.6822 -0.865835 -0.50033 1 0.5 0 1
183 1 58.6776 57.9838 0 58.6776 -21.2822 0 266.784 342.623 -55.0312 -79.9531 -0.734532 -0.678574 1 0.5 0 1
184 1 63.382 43.2117 0 63.382 43.2117 0 571.598 -189.564 -204.936 -0.868456 -0.590505 -0.807034 1 0.5 0 1
185 1 56.4745 17.9157 0 -22.7915 17.9157 0 437.239 728.347 -9.73127 -43.6626 0.990209 0.139593 1 0.5 0 1
186 1 21.7086 41.5352 0 -57.5574 120.801 0 -238.224 -258.494 19.6444 27.594 -0.146643 0.98919 1 0.5 0 1
187 1 55.4589 35.3546 0 -23.8071 114.621 0 -474.524 212.711 297.807 -156.641 0.362722 0.931897 1 0.5 0 1
188 1 65.0313 15.6573 0 144.297 94.9233 0 817.085 714.662 88.9195 -4.22998 0.344942 0.938624 1 0.5 0 1
189 1 72.1947 77.2455 0 -7.07133 77.2455 0 -123.134 -110.265 103.597 23.8416 0.991986 0.126352 1 0.5 0 1
190 1 22.1727 52.4281 0 -57.0933 52.4281 0 -43.9906 568.961 57.5432 -83.234 0.397272 0.917701 1 0.5 0 1
191 1 74.5292 75.7725 0 153.795 -3.49354 0 -1089.32 130.907 -36.3995 29.8147 0.217644 -0.976028 1 0.5 0 1
192 1 58.8111 38.1913 0 58.8111 38.1913 0 353.686 591.852 -246.724 -21.2722 0.880526 0.473997 1 0.5 0 1
193 1 76.3972 13.4269 0 -2.86882 92.6929 0 -151.215 -976.362 115.422 -20.4707 -0.002826 0.999996 1 0.5 0 1
194 1 14.9554 28.2379 0 14.9554 -51.0281 0 -221.932 239.454 -123.773 -311.323 -0.999473 -0.0324497 1 0.5 0 1
195 1 53.7439 30.9553 0 53.7439 30.9553 0 -195.446 173.349 -104.148 10.4643 -0.075966 0.99711 1 0.5 0 1
196 1 58.6679 41.7283 0 58.6679 41.7283 0 328.091 -359.658 1.33909 -117.028 0.631931 -0.775025 1 0.5 0 1
197 1 72.0568 61.1256 0 -7.20919 61.1256 0 313.839 714.3 -29.9021 55.2457 0.804633 -0.593773 1 0.5 0 1
198 1 73.6461 45.5381 0 73.6461 45.5381 0 -366.784 -118.979 -122.759 95.3702 -0.913661 0.406476 1 0.5 0 1
199 1 68.4946 69.1749 0 -10.7714 -10.0911 0 -616.109 521.87 -138.618 -193.609 0.327856 -0.944728 1 0.5 0 1
200 1 1.71678 17.7939 0 80.9828 97.0599 0 430.551 -154.174 -1.49111 -26.5805 -0.48588 0.874025 1 0.5 0 1
201 1 63.3244 13.3918 0 -15.9416 92.6578 0 -787.326 -552.92 14.999 -2.26765 -0.0380279 0.999277 1 0.5 0 1
202 1 56.456 60.0449 0 -22.81 -19.2211 0 295.756 -398.938 -80.9286 -28.998 0.993627 0.112717 1 0.5 0 1
203 1 18.6828 42.9925 0 -60.5832 122.258 0 -232.94 -194.661 -166.928 102.694 -0.966726 0.255815 1 0.5 0 1
204 1 65.4513 63.5813 0 65.4513 -15.6847 0 -574.545 -29.5189 42.4846 50.0875 -0.512464 -0.858709 1 0.5 0 1
205 1 50.3674 20.4766 0 50.3674 99.7426 0 424.654 -707.983 -84.2542 54.9494 0.0469732 0.998896 1 0.5 0 1
206 1 4.60311 60.243 0 4.60311 -19.023 0 -194.384 -12.6564 -16.2896 81.8551 -0.908177 -0.418585 1 0.5 0 1
207 1 60.1281 63.7971 0 60.1281 63.7971 0 315.145 -22.572 -55.7271 -112.015 0.927265 0.374406 1 0.5 0 1
208 1 8.85779 33.0564 0 8.85779 33.0564 0 -910.978 907.01 50.5166 10.3552 -0.392173 0.919892 1 0.5 0 1
209 1 53.2197 27.9404 0 53.2197 107.206 0 695.102 42.4866 -150.093 72.1965 0.968621 -0.248543 1 0.5 0 1
210 1 66.9149 62.256 0 -12.3511 62.256 0 -26.2339 -436.717 -41.9241 -24.0997 -0.335421 0.942068 1 0.5 0 1
211 1 60.7707 43.2781 0 60.7707 43.2781 0 205.133 -68.9154 -66.6039 -122.469 0.329302 -0.944225 1 0.5 0 1
212 1 21.9 47.5884 0 180.432 47.5884 0 797.189 295.214 18.289 -79.345 -0.723101 0.690742 1 0.5 0 1
213 1 70.2617 65.0897 0 70.2617 65.0897 0 580.952 1.53389 25.7548 -75.724 -0.86177 -0.507299 1 0.5 0 1
214 1 32.7287 39.7498 0 32.7287 39.7498 0 284.791 652.917 68.4369 -72.9136 0.684369 -0.729136 1 0.5 0 1
215 1 54.8669 61.5203 0 54.8669 -17.7457 0 -6.68509 1603.41 150.806 -43.2674 0.36244 0.932007 1 0.5 0 1
216 1 15.5759 47.6765 0 15.5759 126.943 0 436.732 -71.3797 -139.191 27.5739 -0.884968 0.465652 1 0.5 0 1
217 1 2.46817 5.21694 0 161 84.4829 0 137.784 131.249 91.468 -40.418 0.91468 -0.40418 1 0.5 0 1
218 1 46.0041 49.8215 0 46.0041 49.8215 0 -235.059 -1013.06 -92.844 36.8463 -0.99421 0.107455 1 0.5 0 1
219 1 53.1696 45.487 0 53.1696 45.487 0 1204.9 -451.074 -183.267 44.3998 -0.89147 -0.453079 1 0.5 0 1
220 1 63.5995 67.6713 0 63.5995 -90.8607 0 -285.955 101.536 -81.5288 -32.4251 0.289683 0.957123 1 0.5 0 1
221 1 46.4203 12.6324 0 -32.8457 171.164 0 -455.096 45.9264 3.82718 -99.9267 0.0382718 -0.999267 1 0.5 0 1
222 1 42.3589 31.7823 0 42.3589 31.7823 0 -220.963 -616.902 -74.8265 -30.7247 0.740302 -0.672274 1 0.5 0 1
223 1 72.0413 37.7534 0 -7.22471 37.7534 0 491.87 -115.899 -121.392 -121.344 0.765683 -0.643218 1 0.5 0 1
224 1 76.8 61.6037 0 -2.46596 61.6037 0 184.496 -727.435 5.06767 -41.7282 0.261244 -0.965273 1 0.5 0 1
225 1 12.667 26.3817 0 91.933 -52.8843 0 386.652 777.122 89.7822 -5.6048 -0.33988 -0.940469 1 0.5 0 1
226 1 24.3359 57.424 0 -54.9301 -21.842 0 657.899 -47.6933 43.8305 -23.4851 -0.675084 -0.737741 1 0.5 0 1
227 1 1.37035 37.8217 0 80.6363 37.8217 0 -319.77 -506.587 29.9013 59.5709 -0.269042 -0.963128 1 0.5 0 1
228 1 16.3327 63.8539 0 -62.9333 -15.4121 0 -492.544 -400.061 -35.73 39.315 -0.274789 -0.961504 1 0.5 0 1
229 1 51.432 41.2772 0 51.432 41.2772 0 158.275 309.09 -75.0813 -130.527 -0.316962 -0.948438 1 0.5 0 1
230 1 51.9502 39.6425 0 51.9502 118.908 0 215.68 -6.6001 159.527 -39.4501 -0.947422 0.319986 1 0.5 0 1
231 1 4.01452 24.1045 0 4.01452 103.371 0 -686.342 915.834 206.568 49.8784 -0.638963 0.769237 1 0.5 0 1
232 1 45.9489 27.3345 0 45.9489 -51.9315 0 -38.7411 466.104 111.817 102.667 0.661535 0.749915 1 0.5 0 1
233 1 8.06064 46.672 0 8.06064 46.672 0 -196.208 -337.64 -75.2588 -65.8232 0.512062 0.858949 1 0.5 0 1
234 1 67.3938 3.53156 0 67.3938 3.53156 0 395.948 307.323 47.5771 87.9569 0.475771 0.879569 1 0.5 0 1
235 1 24.922 52.378 0 24.922 131.644 0 55.0618 -329.84 -15.4485 50.6781 -0.601844 0.798613 1 0.5 0 1
236 1 55.4617 68.1127 0 134.728 -11.1533 0 221.649 -36.8799 127.888 1.28662 0.990046 -0.140746 1 0.5 0 1
237 1 70.8015 71.7451 0 70.8015 -7.5209 0 47.6926 425.167 186.033 -141.539 0.73285 -0.68039 1 0.5 0 1
238 1 68.6187 22.0471 0 68.6187 101.313 0 191.69 473.539 -126.249 20.2938 0.995016 0.0997188 1 0.5 0 1
239 1 3.4205 43.5245 0 82.6865 43.5245 0 612.854 -388.132 5.22346 -98.2867 0.2616 -0.965176 1 0.5 0 1
240 1 71.9827 17.4716 0 71.9827 17.4716 0 15.0377 1162.48 -23.3002 -96.7608 0.942058 -0.335451 1 0.5 0 1
241 1 48.0661 37.2545 0 48.0661 37.2545 0 -10.0505 -393.773 -98.6053 -45.2951 0.555047 -0.831819 1 0.5 0 1
242 1 6.64982 64.5323 0 85.9158 -14.7337 0 -480.561 403.901 26.4137 -78.0101 0.965629 0.259926 1 0.5 0 1
243 1 61.5264 71.7789 0 -97.0056 71.7789 0 12.2786 152.021 43.1337 -37.1908 -0.918968 -0.394332 1 0.5 0 1
244 1 60.4883 25.0889 0 60.4883 104.355 0 103.787 -848.391 -0.471076 -60.4302 0.547965 -0.836501 1 0.5 0 1
245 1 56.4353 51.8904 0 56.4353 51.8904 0 -34.9941 153.967 120.705 -8.2039 0.703229 -0.710963 1 0.5 0 1
246 1 48.9756 42.3297 0 48.9756 42.3297 0 104.421 -617.66 100.908 278.316 0.176754 -0.984255 1 0.5 0 1
247 1 67.7874 54.3846 0 67.7874 -24.8814 0 334.751 163.533 -99.7063 -153.644 0.608093 -0.793866 1 0.5 0 1
248 1 51.2453 10.9449 0 -28.0207 10.9449 0 -168.503 673.52 -33.431 -20.0422 0.985722 0.168382 1 0.5 0 1
249 1 40.3899 44.3483 0 119.656 -34.9177 0 -1223.53 -363.162 86.2833 -112.136 0.951515 0.307603 1 0.5 0 1
250 1 55.7591 69.0923 0 214.291 69.0923 0 542.265 -334.392 -44.1704 71.5179 -0.334139 -0.942524 1 0.5 0 1
251 1 63.3321 16.1685 0 63.3321 174.7 0 124.293 -491.224 69.3331 44.3859 0.699106 0.715018 1 0.5 0 1
252 1 60.0247 22.074 0 60.0247 101.34 0 869.075 -464.358 -100.556 -44.9749 -0.975302 -0.220877 1 0.5 0 1
253 1 17.1083 50.0175 0 17.1083 50.0175 0 -305.808 40.8337 -331.732 12.743 -0.986553 0.163442 1 0.5 0 1
254 1 47.4328 34.2681 0 47.4328 113.534 0 377.734 -290.536 -165.866 188.088 -0.334878 -0.942261 1 0.5 0 1
255 1 1.42866 35.0955 0 80.6947 114.362 0 178.944 -108.873 150.831 -46.4152 -0.574368 0.818597 1 0.5 0 1
256 1 68.6278 43.1457 0 -10.6382 43.1457 0 163.18 877.931 -33.2199 -224.365 -0.598281 0.801287 1 0.5 0 1
257 1 7.63267 39.1718 0 7.63267 118.438 0 431.395 143.68 -4.71386 21.0419 -0.880714 0.473648 1 0.5 0 1
258 1 6.70387 27.7113 0 6.70387 -51.5547 0 -29.083 208.341 -87.6824 23.6006 0.711862 0.70232 1 0.5 0 1
259 1 33.2413 29.1594 0 33.2413 29.1594 0 -918.308 -275.885 -91.7101 -85.7584 -0.285258 -0.958451 1 0.5 0 1
260 1 71.3641 70.0143 0 150.63 -9.25173 0 -375.919 259.535 283.906 11.7039 0.872931 -0.487843 1 0.5 0 1
261 1 10.4561 23.4277 0 10.4561 23.4277 0 -269.937 -524.166 102.76 1.34127 -0.975672 -0.219237 1 0.5 0 1
262 1 56.6108 61.0253 0 135.877 -18.2407 0 428.094 59.505 -95.3532 -92.1174 -0.628504 -0.777807 1 0.5 0 1
263 1 79.1592 72.4329 0 -79.3728 -86.0991 0 -668.847 330.399 142.868 -103.263 0.464638 -0.885501 1 0.5 0 1
264 1 18.4891 38.1433 0 177.021 -41.1227 0 -316.147 -833.408 -65.0933 73.9759 -0.916924 -0.399061 1 0.5 0 1
265 1 52.6394 29.5922 0 52.6394 108.858 0 -494.7 69.1724 -2.29749 -182.768 0.637463 -0.770481 1 0.5 0 1
266 1 55.9338 53.5572 0 55.9338 53.5572 0 545.491 506.536 -175.344 -188.281 0.945087 0.32682 1 0.5 0 1
267 1 73.4578 63.3122 0 -5.80818 -15.9538 0 154.94 -904.441 151.508 -93.3615 -0.746659 -0.665206 1 0.5 0 1
268 1 67.4398 60.6059 0 67.4398 60.6059 0 -49.4815 -473.069 160.323 -50.386 0.976624 0.214956 1 0.5 0 1
269 1 21.4759 58.8089 0 100.742 58.8089 0 557.332 -745.557 -22.1507 17.9491 0.527385 0.849627 1 0.5 0 1
270 1 16.3987 77.4124 0 16.3987 -1.85363 0 -257.451 39.4748 -36.7726 -92.9934 -0.367726 -0.929934 1 0.5 0 1
271 1 7.95661 7.04901 0 87.2226 7.04901 0 -36.8316 -450.215 98.7864 15.5324 0.987864 0.155324 1 0.5 0 1
272 1 51.0185 39.317 0 51.0185 39.317 0 -724.836 20.5095 60.7916 61.919 0.314924 0.949117 1 0.5 0 1
273 1 59.8447 51.0864 0 59.8447 51.0864 0 -537.28 638.073 -99.541 -48.8216 -0.947682 -0.319217 1 0.5 0 1
274 1 20.8616 21.4405 0 100.128 21.4405 0 341.279 -254.379 81.0787 58.5341 0.810787 0.585341 1 0.5 0 1
275 1 9.31403 64.3624 0 88.58 -14.9036 0 156.412 -235.466 54.1875 119.864 0.65606 0.754709 1 0.5 0 1
276 1 57.7347 46.0209 0 57.7347 46.0209 0 74.6069 -1080.7 28.0077 -37.8874 -0.637789 0.770212 1 0.5 0 1
277 1 30.0689 77.2371 0 30.0689 -2.02891 0 -968.638 -679.741 81.2728 -58.2643 0.812728 -0.582643 1 0.5 0 1
278 1 9.83575 33.3523 0 -69.4303 112.618 0 -109.204 -810.026 -72.0364 -17.8269 -0.243703 -0.96985 1 0.5 0 1
279 1 17.922 43.6918 0 97.188 -114.84 0 -282.168 272.062 120.088 -88.8605 -0.922603 0.385751 1 0.5 0 1
280 1 2.4104 74.0115 0 -76.8556 -84.5205 0 334.801 -25.461 7.0353 -79.0266 -0.0704289 -0.997517 1 0.5 0 1
281 1 69.1494 56.6201 0 69.1494 56.6201 0 -967.945 29.8878 188.709 -126.971 -0.996168 -0.0874547 1 0.5 0 1
282 1 47.5128 48.4319 0 47.5128 -30.8341 0 -900.676 -347.171 201.274 -35.8634 0.655943 -0.75481 1 0.5 0 1
283 1 69.0755 32.3048 0 -10.1905 111.571 0 120.268 695.657 -57.996 153.94 -0.87889 -0.477024 1 0.5 0 1
284 1 5.42185 30.0117 0 5.42185 109.278 0 196.753 321.328 246.213 137.035 0.794898 -0.606743 1 0.5 0 1
285 1 65.4174 35.685 0 65.4174 35.685 0 -27.2144 345.462 -66.2483 43.1309 0.529333 -0.848414 1 0.5 0 1