ITEM: TIMESTEP
360000
ITEM: NUMBER OF ATOMS
4000
ITEM: BOX BOUNDS pp pp pp
0.0000000000000000e+00 7.9266000000000005e+01
0.0000000000000000e+00 7.9266000000000005e+01
-5.0000000000000000e-01 5.0000000000000000e-01
ITEM: ATOMS id type x y z xu yu zu vx vy fx fy mux muy mu radius omegaz mass
1 1 2.44008 64.5442 0 81.7061 64.5442 0 697.417 398.741 -174.275 -29.2576 -0.960077 -0.279737 1 0.5 0 1
2 1 61.0209 18.8276 0 61.0209 18.8276 0 -337.755 746.247 233.408 -138.386 0.92539 -0.379016 1 0.5 0 1
3 1 15.2331 35.6351 0 15.2331 -43.6309 0 -474.591 -183.151 154.777 -12.5867 0.869156 0.494538 1 0.5 0 1
4 1 5.7859 10.6682 0 5.7859 10.6682 0 -32.7618 361.681 -98.4852 -17.3395 -0.984852 -0.173395 1 0.5 0 1
5 1 2.71888 31.9224 0 2.71888 31.9224 0 -629.093 442.344 221.785 -93.5152 -0.814471 0.580204 1 0.5 0 1
6 1 69.9344 30.0256 0 -9.33162 30.0256 0 -374.008 813.306 -29.72 5.66975 -0.19903 0.979993 1 0.5 0 1
7 1 66.8183 49.3036 0 66.8183 49.3036 0 -180.324 -536.46 97.6462 -117.202 0.684485 0.729027 1 0.5 0 1
8 1 15.8901 38.5162 0 15.8901 -40.7498 0 -73.6067 271.002 -18.4591 -71.8949 -0.255197 -0.966889 1 0.5 0 1
9 1 68.2226 27.6734 0 68.2226 27.6734 0 -316.816 -390.864 45.0242 -91.8905 0.086429 -0.996258 1 0.5 0 1
10 1 19.7142 55.5276 0 19.7142 55.5276 0 -136.358 -663.342 -63.3884 109.456 -0.756335 -0.654184 1 0.5 0 1
11 1 76.6967 8.39444 0 -81.8353 8.39444 0 930.669 -1180.59 57.2488 25.2255 -0.447343 0.894362 1 0.5 0 1
12 1 0.527583 23.107 0 79.7936 102.373 0 -177.323 49.7879 32.2026 -43.1198 -0.815491 -0.57877 1 0.5 0 1
13 1 76.1883 68.7105 0 76.1883 -10.5555 0 198.257 114.322 64.6818 -63.6804 -0.841901 0.539631 1 0.5 0 1
14 1 19.3237 43.7159 0 -139.208 43.7159 0 -697.049 -190.172 -26.2066 37.4075 -0.973029 0.230682 1 0.5 0 1
15 1 10.4163 34.3079 0 10.4163 34.3079 0 -153.72 327.043 141.006 105.059 -0.990946 0.134261 1 0.5 0 1
16 1 15.2429 50.0442 0 -64.0231 -29.2218 0 56.4681 -272.809 194.036 214.217 -0.947126 0.320862 1 0.5 0 1
17 1 40.6536 40.132 0 119.92 119.398 0 264.642 430.754 -113.712 84.0851 0.986062 0.166378 1 0.5 0 1
18 1 18.4336 17.3783 0 18.4336 17.3783 0 -98.6817 474.972 -72.6035 -68.7657 -0.726035 -0.687657 1 0.5 0 1
19 1 4.0724 41.5354 0 4.0724 41.5354 0 -243.182 156.814 -62.651 -161.338 -0.0643055 0.99793 1 0.5 0 1
20 1 14.6208 57.2588 0 14.6208 57.2588 0 11.4353 -445.684 157.831 16.5904 0.999247 0.038789 1 0.5 0 1
21 1 3.70799 28.6423 0 3.70799 28.6423 0 742.427 193.186 257.37 -135.55 0.613367 0.789798 1 0.5 0 1
22 1 1.98505 21.8079 0 81.251 21.8079 0 762.284 -172.713 -115.414 224.619 -0.343308 0.939223 1 0.5 0 1
23 1 38.2579 45.7553 0 117.524 45.7553 0 -104.606 -401.174 -1.42927 -46.5627 0.972769 -0.231777 1 0.5 0 1
24 1 65.8319 57.0638 0 65.8319 -22.2022 0 262.995 371.248 -38.8613 -10.6716 0.825894 -0.563825 1 0.5 0 1
25 1 46.887 28.5023 0 -32.379 -50.7637 0 405.696 -161.529 -162.414 60.1918 0.482702 -0.875785 1 0.5 0 1
26 1 52.0117 57.4272 0 52.0117 -101.105 0 456.277 336.534 167.198 -5.24999 0.934308 0.356466 1 0.5 0 1
27 1 74.5464 19.6651 0 -4.71961 98.9311 0 -118.187 -712.369 12.7661 99.1804 -0.977532 -0.210788 1 0.5 0 1
28 1 56.3345 10.2139 0 56.3345 89.4799 0 -80.0025 -781.414 -26.0163 -96.5565 -0.260163 -0.965565 1 0.5 0 1
29 1 73.9381 38.3338 0 -5.32793 38.3338 0 -242.127 80.0743 157.453 -62.3443 -0.974929 0.222516 1 0.5 0 1
30 1 65.5064 15.1121 0 65.5064 94.3781 0 78.4138 -398.424 138.338 99.7006 0.41823 0.908341 1 0.5 0 1
31 1 74.4523 26.9016 0 -4.81366 26.9016 0 371.338 225.68 103.345 -222.344 -0.812832 0.582498 1 0.5 0 1
32 1 3.57418 15.9796 0 3.57418 15.9796 0 489.086 -83.374 178.791 122.759 -0.497021 0.867738 1 0.5 0 1
33 1 64.3517 58.4252 0 64.3517 -20.8408 0 12.7776 68.0565 -257.941 -170.66 0.29444 -0.95567 1 0.5 0 1
34 1 5.7409 44.8124 0 85.0069 44.8124 0 329.817 -19.2595 -85.2423 34.7336 0.499179 0.866499 1 0.5 0 1
35 1 41.9005 35.2945 0 -37.3655 35.2945 0 -343.352 -144.297 -49.3649 -81.2328 0.999884 -0.0152428 1 0.5 0 1
36 1 59.7814 58.2078 0 59.7814 -21.0582 0 436.208 659.118 -100.148 -101.733 -0.0213528 0.999772 1 0.5 0 1
37 1 69.5279 42.1927 0 69.5279 42.1927 0 465.06 -128.275 63.7857 116.823 -0.982724 -0.185076 1 0.5 0 1
38 1 72.2694 11.5031 0 151.535 90.7691 0 -752.353 -147.819 -3.60867 10.3163 0.860396 -0.509626 1 0.5 0 1
39 1 9.28278 21.8409 0 88.5488 -57.4251 0 -307.657 -273.404 -30.0087 60.5072 -0.894033 0.448002 1 0.5 0 1
40 1 56.8154 18.0279 0 -22.4506 97.2939 0 790.785 501.936 -29.4116 -88.3901 0.00224108 0.999997 1 0.5 0 1
41 1 68.4066 52.4788 0 68.4066 52.4788 0 -6.0086 -837.52 -249.914 124.337 0.92847 0.371406 1 0.5 0 1
42 1 74.3653 59.8439 0 -4.9007 59.8439 0 428.574 275.481 -71.7312 211.59 0.0698359 -0.997558 1 0.5 0 1
43 1 0.833812 15.7993 0 -78.4322 95.0653 0 -114.715 -415.734 17.6272 -137.609 -0.723272 0.690563 1 0.5 0 1
44 1 64.9148 21.4553 0 64.9148 100.721 0 -422.968 390.496 -29.1035 144.866 0.135004 0.990845 1 0.5 0 1
45 1 7.19096 68.4839 0 7.19096 -90.0481 0 31.921 -880.507 95.4076 57.7258 -0.761516 -0.648147 1 0.5 0 1
46 1 6.64874 41.4412 0 6.64874 41.4412 0 -574.153 331.244 -49.3496 108.083 -0.807648 0.589666 1 0.5 0 1
47 1 57.8277 61.3543 0 57.8277 -17.9117 0 -480.003 -676.836 127.577 103.454 -0.0209791 -0.99978 1 0.5 0 1
48 1 11.3566 46.5004 0 11.3566 46.5004 0 237.089 5.06493 -100.826 -54.2465 -0.649412 -0.760437 1 0.5 0 1
49 1 20.6764 14.9427 0 20.6764 94.2087 0 -197.679 -351.566 -22.7126 -97.3865 -0.227126 -0.973865 1 0.5 0 1
50 1 72.5089 6.32482 0 -6.75713 6.32482 0 522.431 -646.141 -63.0387 -8.12236 -0.810286 0.586034 1 0.5 0 1
51 1 75.4775 76.286 0 -83.0545 -2.98004 0 205.434 279.042 -67.9168 -42.751 -0.672 -0.740551 1 0.5 0 1
52 1 3.90681 33.2566 0 83.1728 33.2566 0 -184.999 -646.868 -11.4385 7.80278 -0.822092 0.569354 1 0.5 0 1
53 1 11.6845 55.1215 0 11.6845 134.387 0 -166.728 834.159 77.7328 -206.194 -0.966613 -0.25624 1 0.5 0 1
54 1 52.4329 29.6099 0 52.4329 29.6099 0 131.83 20.6878 -77.0259 87.8679 -0.706781 0.707433 1 0.5 0 1
55 1 18.3002 43.6615 0 97.5662 122.927 0 -293.897 103.753 -74.3565 5.49474 -0.95252 0.304475 1 0.5 0 1
56 1 41.872 37.9613 0 41.872 37.9613 0 191.769 -428.891 23.274 41.3758 0.687025 0.726634 1 0.5 0 1
57 1 12.9179 24.8722 0 12.9179 104.138 0 -187.649 149.698 19.4667 -23.8774 -0.737546 0.675297 1 0.5 0 1
58 1 67.3799 28.2511 0 -11.8861 28.2511 0 160.436 -584.431 33.3012 87.9843 -0.999006 0.0445825 1 0.5 0 1
59 1 51.5385 33.8488 0 51.5385 33.8488 0 479.727 -353.563 -84.2899 25.174 0.0387945 -0.999247 1 0.5 0 1
60 1 55.8642 40.6537 0 55.8642 40.6537 0 -1043.25 442.964 60.5734 -26.3555 0.983221 -0.182419 1 0.5 0 1
61 1 58.4928 44.0918 0 58.4928 44.0918 0 14.1084 -420.394 -6.46836 -46.8555 0.996565 0.0828133 1 0.5 0 1
62 1 57.0217 20.0531 0 136.288 20.0531 0 172.691 -152.561 -161.028 -82.3484 0.856376 0.516352 1 0.5 0 1
63 1 12.4031 60.2335 0 -66.8629 -19.0325 0 -100.332 579.5 65.2839 -8.69957 0.837457 0.546504 1 0.5 0 1
64 1 45.4535 26.1253 0 124.72 105.391 0 -310.618 -197.54 -61.2587 65.7868 -0.983785 0.179354 1 0.5 0 1
65 1 36.1839 25.2842 0 194.716 104.55 0 -56.836 489.389 83.312 55.3093 0.83312 0.553093 1 0.5 0 1
66 1 12.8875 45.0866 0 92.1535 124.353 0 -215.626 549.836 47.2214 -35.8706 0.991992 0.126298 1 0.5 0 1
67 1 53.6889 42.6616 0 53.6889 42.6616 0 -91.2762 -468.706 15.4176 -165.622 -0.895714 0.444631 1 0.5 0 1
68 1 14.5873 40.9306 0 14.5873 40.9306 0 -374.596 -33.2502 53.7732 -0.96656 -0.0862649 -0.996272 1 0.5 0 1
69 1 53.5849 20.6244 0 53.5849 20.6244 0 111.553 -10.6435 -63.5234 -7.61977 0.95098 -0.309252 1 0.5 0 1
70 1 47.8502 37.1021 0 47.8502 116.368 0 -137.986 -230.322 153.91 -162.226 0.982282 0.187407 1 0.5 0 1
71 1 36.7372 75.8952 0 116.003 -3.37081 0 -12.8929 419.047 88.1942 -47.1357 0.881942 -0.471357 1 0.5 0 1
72 1 4.21624 56.9566 0 4.21624 56.9566 0 -92.3005 627.438 -112.233 -207.84 -0.980941 0.194305 1 0.5 0 1
73 1 77.655 12.036 0 -1.61099 12.036 0 131.601 -386.374 48.5511 -88.9473 -0.837299 0.546746 1 0.5 0 1
74 1 57.292 22.0955 0 57.292 101.362 0 -28.9313 -304.783 -28.0256 72.9234 0.992717 0.12047 1 0.5 0 1
75 1 75.638 37.9885 0 -3.62802 37.9885 0 -114.264 169.346 -131.802 -62.1658 0.617351 0.786688 1 0.5 0 1
76 1 47.6594 23.2115 0 -31.6066 23.2115 0 -48.8941 -252.519 80.6314 32.3114 -0.64987 0.760045 1 0.5 0 1
77 1 78.1953 34.337 0 -1.07073 34.337 0 -639.153 410.939 145.575 -130.125 0.989536 -0.144288 1 0.5 0 1
78 1 59.9863 17.3261 0 59.9863 96.5921 0 -422.612 -174.76 -18.5436 30.5027 0.779896 -0.625909 1 0.5 0 1
79 1 45.6676 57.3276 0 -33.5984 57.3276 0 470.458 404.395 92.6744 -38.4075 0.299677 -0.954041 1 0.5 0 1
80 1 0.537331 26.6756 0 0.537331 -52.5904 0 550.554 479.015 -21.543 -37.291 -0.0262465 -0.999656 1 0.5 0 1
81 1 47.1047 34.0644 0 126.371 34.0644 0 -172.004 169.247 10.3793 106.963 0.509501 -0.86047 1 0.5 0 1
82 1 0.82031 38.5876 0 0.82031 38.5876 0 139.233 -164.685 0.408929 -18.43 0.552062 0.833803 1 0.5 0 1
83 1 41.6558 40.4647 0 120.922 119.731 0 -202.834 1163.27 -102.207 -235.144 0.532851 0.846209 1 0.5 0 1
84 1 76.1725 44.5402 0 -3.0935 44.5402 0 -262.132 228.862 54.2614 16.8623 -0.991918 -0.126884 1 0.5 0 1
85 1 47.38 17.2817 0 47.38 17.2817 0 346.142 -597.034 -108.273 2.89601 -0.898309 0.439365 1 0.5 0 1
86 1 10.7124 39.9127 0 10.7124 39.9127 0 72.6161 -631.978 -65.2002 30.1499 -0.986479 0.163888 1 0.5 0 1
87 1 11.2093 41.8341 0 11.2093 41.8341 0 -137.646 -98.3905 29.9188 264.223 -0.925401 -0.37899 1 0.5 0 1
88 1 15.8335 63.1495 0 15.8335 -16.1165 0 1078.03 -185.842 -82.11 69.224 -0.942324 0.334702 1 0.5 0 1
89 1 23.9977 61.8957 0 23.9977 -17.3703 0 -95.1771 205.614 -41.1743 -91.13 -0.411743 -0.9113 1 0.5 0 1
90 1 4.12791 37.8298 0 4.12791 37.8298 0 -354.786 233.988 -62.2428 62.5531 -0.999932 0.0116595 1 0.5 0 1
91 1 15.7022 58.644 0 15.7022 -20.622 0 -457.89 -220.65 -106.238 -82.5269 -0.446395 -0.894836 1 0.5 0 1
92 1 2.80507 54.6278 0 2.80507 54.6278 0 -242.343 721.779 -18.0316 -2.89133 0.838458 0.544967 1 0.5 0 1
93 1 1.43727 45.1533 0 1.43727 45.1533 0 -741.904 179.052 63.5587 4.6896 -0.884138 0.467226 1 0.5 0 1
94 1 69.9523 36.1537 0 69.9523 36.1537 0 596.618 124.023 -38.4987 -58.4958 0.883796 -0.467873 1 0.5 0 1
95 1 66.5792 48.3215 0 66.5792 48.3215 0 67.4576 97.0187 21.6498 -230.574 -0.965035 -0.262122 1 0.5 0 1
96 1 53.4577 41.6503 0 53.4577 41.6503 0 -383.037 65.031 -20.3542 -105.943 -0.168693 -0.985669 1 0.5 0 1
97 1 46.6205 21.5684 0 46.6205 -57.6976 0 321.51 -334.686 37.7117 -77.9634 0.812524 -0.582928 1 0.5 0 1
98 1 19.587 49.7156 0 19.587 49.7156 0 -394.336 -438.704 215.96 -24.1713 -0.862178 -0.506606 1 0.5 0 1
99 1 44.825 38.8847 0 44.825 -40.3813 0 -60.7577 -346.667 87.9994 -203.072 0.654785 0.755815 1 0.5 0 1
100 1 72.4223 43.2067 0 72.4223 43.2067 0 -20.9387 -524.419 -64.4845 238.331 0.66864 -0.743587 1 0.5 0 1
101 1 49.3471 46.6038 0 49.3471 -32.6622 0 1611.64 -15.376 -213.88 103.765 -0.896677 0.442685 1 0.5 0 1
102 1 78.3207 42.5812 0 -0.94527 42.5812 0 -197.873 534.123 -108.075 -102.071 -0.881588 -0.472019 1 0.5 0 1
103 1 63.6358 73.4673 0 -94.8962 152.733 0 -782.947 -490.844 -53.4816 -47.8373 -0.976928 -0.213567 1 0.5 0 1
104 1 52.9893 43.3151 0 52.9893 122.581 0 -825.858 -536.82 -49.6806 -78.9416 0.921614 0.388109 1 0.5 0 1
105 1 12.9254 20.9973 0 12.9254 20.9973 0 -188.545 69.9841 28.8831 95.738 0.288831 0.95738 1 0.5 0 1
106 1 40.3329 54.5015 0 40.3329 -24.7645 0 -199.525 -164.183 -47.2418 -3.2495 0.875607 -0.483025 1 0.5 0 1
107 1 61.2056 36.9007 0 61.2056 36.9007 0 174.006 -36.3152 71.8948 -50.1514 0.385535 -0.922693 1 0.5 0 1
108 1 78.6889 36.3017 0 -0.577089 115.568 0 -583.719 253.577 -6.28075 -82.24 0.986454 0.164039 1 0.5 0 1
109 1 11.775 23.4945 0 -67.491 102.761 0 -515.759 31.7997 40.0188 77.0481 -0.599316 0.800513 1 0.5 0 1
110 1 49.958 30.5747 0 49.958 30.5747 0 259.942 -323.186 -16.7307 7.7844 -0.997653 0.0684698 1 0.5 0 1
111 1 73.9602 14.7004 0 73.9602 93.9664 0 -341.877 739.015 403.143 -33.1103 0.07557 0.997141 1 0.5 0 1
112 1 10.7608 49.2232 0 10.7608 49.2232 0 531.581 146.96 14.4176 -260.392 0.863806 0.503824 1 0.5 0 1
113 1 13.5143 28.1073 0 -65.7517 107.373 0 30.9676 -20.6306 65.7076 -114.443 -0.877185 0.480153 1 0.5 0 1
114 1 53.9046 54.2282 0 53.9046 54.2282 0 -647.74 -43.4189 -130.512 -203.661 0.972386 -0.233378 1 0.5 0 1
115 1 40.0563 45.3545 0 40.0563 -33.9115 0 214.125 -634.547 -2.37055 106.053 0.414089 -0.910236 1 0.5 0 1
116 1 58.7887 9.50008 0 58.7887 -69.7659 0 501.016 -400.033 21.6577 -70.7178 0.656717 -0.754137 1 0.5 0 1
117 1 62.5089 67.9135 0 62.5089 -11.3525 0 76.8961 -890.158 85.8876 121.278 0.956531 -0.291629 1 0.5 0 1
118 1 54.2178 41.0008 0 54.2178 41.0008 0 128.571 -130.66 -379.558 -9.57456 0.972487 -0.232958 1 0.5 0 1
119 1 64.4866 5.35319 0 143.753 5.35319 0 -145.065 458.105 27.8036 -5.3562 0.715325 -0.698791 1 0.5 0 1
120 1 45.9332 50.9384 0 125.199 -28.3276 0 -163.279 -609.029 -3.54249 251.016 -0.977364 -0.211563 1 0.5 0 1
121 1 39.0752 24.8079 0 -119.457 24.8079 0 -116.507 -429.285 73.9114 67.3581 0.739114 0.673581 1 0.5 0 1
122 1 22.602 32.6768 0 22.602 111.943 0 198.691 250.168 17.8667 98.391 0.178667 0.98391 1 0.5 0 1
123 1 74.8188 31.4168 0 -4.44722 31.4168 0 -429.932 -814.5 -102.423 89.0108 -0.967455 0.253044 1 0.5 0 1
124 1 37.6975 67.4134 0 -41.5685 -11.8526 0 -218.542 238.883 -65.7551 24.072 -0.909856 -0.414925 1 0.5 0 1
125 1 65.6211 28.5088 0 65.6211 28.5088 0 627.573 226.241 -49.379 -91.4526 -0.362738 -0.931891 1 0.5 0 1
126 1 8.76421 34.7136 0 88.0302 113.98 0 315.792 -81.842 -3.52272 136.54 0.87234 -0.488899 1 0.5 0 1
127 1 56.9765 30.3252 0 56.9765 109.591 0 479.254 48.4766 -34.4453 50.1269 0.541024 0.841007 1 0.5 0 1
128 1 2.95764 25.671 0 -76.3084 25.671 0 -1037.62 -686.424 -99.7515 15.0556 -0.996849 0.0793231 1 0.5 0 1
129 1 67.4858 56.7134 0 67.4858 -22.5526 0 -154.738 31.3559 137.305 -152.461 -0.980948 -0.194272 1 0.5 0 1
130 1 73.5286 56.0275 0 73.5286 -23.2385 0 -534.501 -119.046 10.921 54.5133 -0.0579377 -0.99832 1 0.5 0 1
131 1 2.14494 72.5388 0 2.14494 72.5388 0 715.594 444.9 -63.5455 -4.22329 0.517017 -0.855975 1 0.5 0 1
132 1 59.0891 31.8615 0 -20.1769 111.127 0 836.399 -11.3265 -40.9834 102.313 0.927534 -0.373739 1 0.5 0 1
133 1 17.7122 49.0886 0 17.7122 128.355 0 -244.586 156.131 22.6603 -37.6962 -0.948489 0.31681 1 0.5 0 1
134 1 12.0141 37.5558 0 12.0141 37.5558 0 379.935 -440.288 79.561 -54.7764 -0.771936 -0.635701 1 0.5 0 1
135 1 15.0089 53.6885 0 15.0089 132.955 0 -517.676 -570.202 -13.6489 -0.867005 -0.0679274 0.99769 1 0.5 0 1
136 1 29.2701 35.0174 0 108.536 114.283 0 -159.102 206.736 24.3681 96.9855 0.243681 0.969855 1 0.5 0 1
137 1 39.9322 52.8283 0 119.198 52.8283 0 -492.053 -86.8747 45.628 -16.5207 -0.0694201 -0.997588 1 0.5 0 1
138 1 47.8688 51.5649 0 -31.3972 -27.7011 0 -256.184 31.5342 134.76 -156.312 0.584745 0.811217 1 0.5 0 1
139 1 43.8662 42.1457 0 43.8662 -37.1203 0 821.367 148.419 -58.7671 47.8626 0.63543 -0.772158 1 0.5 0 1
140 1 77.0056 11.2593 0 -2.26038 11.2593 0 -230.443 591.936 -97.2725 -33.927 -0.706348 0.707865 1 0.5 0 1
141 1 9.43231 56.9654 0 9.43231 56.9654 0 299.379 -161.301 -67.887 162.415 0.973056 0.230568 1 0.5 0 1
142 1 27.1739 20.2999 0 -52.0921 99.5659 0 -8.33521 -269.554 -13.8269 99.0395 -0.138269 0.990395 1 0.5 0 1
143 1 10.6798 35.2946 0 10.6798 114.561 0 -389.073 115.632 -13.082 -134.313 0.906781 0.421602 1 0.5 0 1
144 1 31.0101 29.045 0 31.0101 29.045 0 1161.63 616.07 -72.7006 68.6631 -0.727006 0.686631 1 0.5 0 1
145 1 9.93895 67.1799 0 89.2049 67.1799 0 143.412 7.14991 -30.4778 -8.21274 0.764345 -0.644808 1 0.5 0 1
146 1 60.1226 62.7426 0 60.1226 -16.5234 0 189.015 -485.777 -11.2307 30.3721 0.855258 -0.518202 1 0.5 0 1
147 1 78.3627 69.2774 0 78.3627 -9.98858 0 212.067 234.463 69.5779 61.6881 -0.92121 0.389067 1 0.5 0 1
148 1 51.2879 58.1635 0 130.554 58.1635 0 -136.991 294.665 61.8101 121.213 -0.925889 0.377795 1 0.5 0 1
149 1 71.2984 31.2919 0 71.2984 110.558 0 578.53 169.19 -125.339 -163.993 -0.943721 0.330742 1 0.5 0 1
150 1 66.3016 35.8749 0 -12.9644 35.8749 0 -186.101 -509.475 45.3284 40.6743 0.992306 -0.123806 1 0.5 0 1
151 1 3.28588 56.5846 0 82.5519 -22.6814 0 -115.778 195.487 -72.5569 127.837 0.608647 -0.793441 1 0.5 0 1
152 1 62.6534 65.228 0 62.6534 65.228 0 -509.985 362.651 257.976 -81.6133 -0.00120543 -0.999999 1 0.5 0 1
153 1 76.1104 59.6563 0 76.1104 59.6563 0 -658.219 -286.121 -36.9129 -79.5095 0.528686 -0.848817 1 0.5 0 1
154 1 2.44004 49.1291 0 2.44004 49.1291 0 77.458 -953.604 -206.916 224.661 0.254387 0.967103 1 0.5 0 1
155 1 69.4498 66.3174 0 -89.0822 -12.9486 0 -358.169 576.858 -1.93082 99.983 0.982374 -0.186926 1 0.5 0 1
156 1 73.5064 48.0204 0 73.5064 48.0204 0 -136.246 -194.213 68.1921 -100.575 0.0474592 -0.998873 1 0.5 0 1
157 1 5.67506 29.2013 0 5.67506 29.2013 0 725.525 114.172 66.1412 107.198 0.371136 -0.928579 1 0.5 0 1
158 1 67.0065 38.7167 0 -12.2595 38.7167 0 19.3182 337.321 193.052 -202.492 0.553933 -0.832561 1 0.5 0 1
159 1 78.3716 9.97043 0 -0.89436 89.2364 0 911.883 -259.96 -17.2702 65.4109 -0.337075 0.941478 1 0.5 0 1
160 1 31.9914 78.7241 0 31.9914 -0.541879 0 428.874 133.012 68.0106 73.3114 0.680106 0.733114 1 0.5 0 1
161 1 44.657 26.7782 0 44.657 -52.4878 0 60.0645 179.375 43.8302 -82.0968 0.209188 -0.977875 1 0.5 0 1
162 1 5.82342 51.9738 0 5.82342 51.9738 0 -293.445 151.803 -76.2928 206.745 -0.100811 -0.994906 1 0.5 0 1
163 1 63.3291 49.0828 0 63.3291 49.0828 0 90.2535 171.673 -87.9225 -144.738 0.779718 0.626131 1 0.5 0 1
164 1 56.8493 63.86 0 56.8493 -15.406 0 569.704 505.919 -102.161 -30.5121 -0.158497 -0.987359 1 0.5 0 1
165 1 37.4574 42.6543 0 37.4574 42.6543 0 -245.719 -148.022 43.6552 14.0825 0.673767 0.738944 1 0.5 0 1
166 1 10.0014 44.2476 0 10.0014 44.2476 0 270.359 -740.615 -74.0117 -85.9456 -0.0199318 0.999801 1 0.5 0 1
167 1 64.837 29.1319 0 64.837 29.1319 0 34.1197 -17.3585 -45.1569 47.829 0.503218 -0.86416 1 0.5 0 1
168 1 11.9779 10.029 0 -67.2881 89.295 0 -210.362 -234.792 13.6927 -99.0581 0.136927 -0.990581 1 0.5 0 1
169 1 20.8058 58.9113 0 -58.4602 138.177 0 306.619 318.674 -30.0608 31.5563 -0.909461 0.415789 1 0.5 0 1
170 1 15.952 54.0835 0 95.218 133.35 0 -575.874 336.281 96.4735 -224.287 0.567785 -0.823177 1 0.5 0 1
171 1 60.7379 68.3727 0 140.004 -10.8933 0 457.301 -214.557 97.5319 32.3135 0.832118 -0.554598 1 0.5 0 1
172 1 7.76796 57.2972 0 7.76796 -21.9688 0 78.1067 29.7205 40.4474 -71.0102 0.984636 -0.174618 1 0.5 0 1
173 1 51.7253 18.51 0 51.7253 -60.756 0 218.572 461.833 -8.76715 -128.426 0.667642 0.744482 1 0.5 0 1
174 1 9.29146 51.4046 0 9.29146 51.4046 0 373.023 -553.641 -27.8915 154.234 -0.587972 0.808881 1 0.5 0 1
175 1 53.4503 62.3811 0 -25.8157 -16.8849 0 364.743 879.439 76.0956 -62.4977 0.769909 -0.638154 1 0.5 0 1
176 1 10.9251 50.1971 0 10.9251 50.1971 0 214.458 -574.22 51.0385 102.69 0.737465 0.675385 1 0.5 0 1
177 1 2.73412 69.9113 0 2.73412 69.9113 0 131.599 24.3443 -223.683 -82.4458 -0.925076 0.379782 1 0.5 0 1
178 1 56.6008 28.3522 0 -22.6652 107.618 0 -192.221 -257.199 -8.89528 189.984 -0.949421 -0.314005 1 0.5 0 1
179 1 3.76045 54.9111 0 3.76045 -24.3549 0 403.704 265.158 75.5706 192.045 0.884399 -0.466731 1 0.5 0 1
180 1 73.6708 40.9288 0 73.6708 40.9288 0 189.945 -828.682 1.75064 124.489 -0.992991 0.118189 1 0.5 0 1
181 1 64.8934 15.894 0 64.8934 15.894 0 579.169 502.456 -90.6238 -94.6149 0.813728 0.581245 1 0.5 0 1
182 1 12.8411 66.4234 0 -66.4249 66.4234 0 -64.69 -372.873 43.917 -3.42483 -0.862348 0.506317 1 0.5 0 1
183 1 58.8514 56.5413 0 58.8514 -22.7247 0 -130.122 -1287.6 1.85747 213.19 -0.781926 -0.623371 1 0.5 0 1
184 1 63.2977 41.987 0 63.2977 41.987 0 681.644 129.975 39.2475 -69.7923 -0.365553 -0.930791 1 0.5 0 1
185 1 56.2596 14.6601 0 -23.0064 14.6601 0 65.9724 -577.812 -63.531 77.2257 -0.63531 0.772257 1 0.5 0 1
186 1 34.0181 15.0585 0 -45.2479 94.3245 0 261.63 318.627 13.3405 58.545 -0.952091 0.305815 1 0.5 0 1
187 1 55.1022 34.2145 0 -24.1638 113.48 0 -519.963 -47.5427 -30.5493 -19.3865 -0.699394 0.714737 1 0.5 0 1
188 1 64.4481 15.0066 0 143.714 94.2726 0 -400.904 196.556 -47.3745 22.4074 -0.0578419 0.998326 1 0.5 0 1
189 1 74.075 75.9289 0 -5.19102 75.9289 0 -4.94196 375.264 -63.5666 2.72165 -0.978456 -0.206453 1 0.5 0 1
190 1 20.2996 53.8484 0 -58.9664 53.8484 0 -71.3226 42.2543 -142.073 95.7843 -0.497194 0.867639 1 0.5 0 1
191 1 65.9462 16.0114 0 145.212 16.0114 0 260.967 -1290.49 10.0223 128.829 -0.387636 -0.921812 1 0.5 0 1
192 1 58.5213 37.0579 0 58.5213 37.0579 0 -293.247 121.757 -89.9463 -103.546 -0.121924 0.992539 1 0.5 0 1
193 1 75.9956 14.2438 0 -3.27044 93.5098 0 183.795 -451.872 12.1303 95.1801 -0.874396 0.485212 1 0.5 0 1
194 1 24.7418 34.5061 0 24.7418 -44.7599 0 -387.696 -62.0993 -95.9886 -28.0392 -0.959886 -0.280392 1 0.5 0 1
195 1 53.371 29.9507 0 53.371 29.9507 0 240.619 -1150.09 -37.3518 164.209 -0.742387 0.669971 1 0.5 0 1
196 1 58.5029 40.5414 0 58.5029 40.5414 0 -263.463 1212.55 6.44791 -45.6796 -0.395544 -0.918447 1 0.5 0 1
197 1 71.0062 60.4792 0 -8.25985 60.4792 0 -669.331 575.513 57.6204 -25.669 0.994782 0.102024 1 0.5 0 1
198 1 73.5579 44.5463 0 73.5579 44.5463 0 205.867 86.0651 120.069 -183.076 -0.632076 0.774907 1 0.5 0 1
199 1 66.1564 68.0773 0 -13.1096 -11.1887 0 -105.688 -1243.06 -29.6845 -144.951 0.64084 -0.767675 1 0.5 0 1
200 1 2.74413 16.5177 0 82.0101 95.7837 0 1067.7 327.054 -169.415 7.12258 0.232737 0.97254 1 0.5 0 1
201 1 1.46873 75.6371 0 1.46873 75.6371 0 580.982 -186.931 -84.0596 54.1663 -0.840596 0.541663 1 0.5 0 1
202 1 56.7965 58.6089 0 -22.4695 -20.6571 0 140.502 203.868 126.794 -216.252 0.910335 -0.413873 1 0.5 0 1
203 1 20.1458 36.1507 0 -59.1202 115.417 0 369.06 -121.37 -31.0069 56.145 -0.862039 0.506843 1 0.5 0 1
204 1 64.5661 63.0026 0 64.5661 -16.2634 0 -142.238 354.026 -111.891 5.18834 -0.413053 -0.910707 1 0.5 0 1
205 1 43.6458 20.8608 0 43.6458 100.127 0 -442.326 -508.219 89.2931 -45.0193 0.892931 -0.450193 1 0.5 0 1
206 1 2.68534 58.2192 0 2.68534 -21.0468 0 -999.154 -17.3681 105.145 140.724 -0.82579 0.563978 1 0.5 0 1
207 1 58.4743 63.2729 0 58.4743 63.2729 0 27.3204 156.148 120.079 48.1759 0.571339 -0.820714 1 0.5 0 1
208 1 8.98673 32.0844 0 8.98673 32.0844 0 -49.7178 475.512 119.279 78.0177 -0.667809 0.744333 1 0.5 0 1
209 1 52.7928 26.9901 0 52.7928 106.256 0 -353.213 64.1098 12.8169 294.291 0.998226 0.0595467 1 0.5 0 1
210 1 65.9562 61.5933 0 -13.3098 61.5933 0 227.905 -11.675 -86.3872 266.071 -0.520612 0.853793 1 0.5 0 1
211 1 60.6506 42.06 0 60.6506 42.06 0 219.349 258.664 213.342 -160.139 0.902894 -0.429864 1 0.5 0 1
212 1 21.9833 34.8435 0 180.515 34.8435 0 -872.521 8.21444 -76.184 64.7765 -0.76184 0.647765 1 0.5 0 1
213 1 69.2294 64.4024 0 69.2294 64.4024 0 -117.875 -521.962 112.533 77.4698 0.104551 0.99452 1 0.5 0 1
214 1 17.7472 62.7422 0 17.7472 62.7422 0 -92.1133 -464.7 -74.8014 -11.9336 0.0727113 -0.997353 1 0.5 0 1
215 1 55.4648 60.0249 0 55.4648 -19.2411 0 -90.5268 -395.413 -63.094 37.4701 0.17589 -0.98441 1 0.5 0 1
216 1 14.7326 47.0872 0 14.7326 126.353 0 -978.014 -286.982 -70.1465 99.0857 -0.425143 0.905126 1 0.5 0 1
217 1 71.9512 7.18783 0 151.217 86.4538 0 -382.725 73.1145 -60.7339 129.172 0.313005 0.949752 1 0.5 0 1
218 1 46.1578 48.3289 0 46.1578 48.3289 0 529.507 -33.6154 50.3681 -56.8899 -0.969761 -0.244055 1 0.5 0 1
219 1 53.2335 44.2713 0 53.2335 44.2713 0 276.428 510.388 -229.94 2.49752 -0.974122 -0.226023 1 0.5 0 1
220 1 61.5531 67.679 0 61.5531 -90.853 0 -322.126 -440.705 -44.5628 102.782 0.924968 0.380046 1 0.5 0 1
221 1 49.2395 21.8861 0 -30.0265 180.418 0 229.898 846.086 15.7477 11.6756 -0.233446 0.97237 1 0.5 0 1
222 1 43.1385 32.7657 0 43.1385 32.7657 0 517.529 -618.795 7.74216 139.217 0.955083 0.296337 1 0.5 0 1
223 1 71.8627 36.7112 0 -7.40326 36.7112 0 30.8352 -317.433 -148.073 -30.4082 -0.298125 -0.954527 1 0.5 0 1
224 1 75.5437 61.206 0 -3.72228 61.206 0 2.08219 258.315 127.857 54.3527 -0.637902 -0.770118 1 0.5 0 1
225 1 13.1987 26.923 0 92.4647 -52.343 0 703.271 170.464 -38.7361 -95.3934 -0.996342 0.085454 1 0.5 0 1
226 1 59.8565 9.38615 0 -19.4095 9.38615 0 -417.025 -475.475 -54.8327 10.4474 -0.988468 0.151432 1 0.5 0 1
227 1 1.30602 36.9156 0 80.572 36.9156 0 616.723 112.365 -91.8151 -208.446 -0.700069 -0.714075 1 0.5 0 1
228 1 13.2562 64.3869 0 -66.0098 -14.8791 0 515.448 -338.842 72.9955 -36.2578 -0.519482 -0.854481 1 0.5 0 1
229 1 51.2721 40.0706 0 51.2721 40.0706 0 -832.344 -373.104 -27.8384 66.5815 -0.963837 -0.266492 1 0.5 0 1
230 1 51.7454 38.424 0 51.7454 117.69 0 -118.453 -352.075 -13.2252 99.1045 -0.304418 0.952539 1 0.5 0 1
231 1 4.9663 22.736 0 4.9663 102.002 0 667.627 -111.672 -74.0802 -108.218 -0.526 0.850485 1 0.5 0 1
232 1 47.8496 24.2785 0 47.8496 -54.9875 0 -143.11 -457.163 21.5014 -166.78 0.529674 0.848201 1 0.5 0 1
233 1 6.67109 45.0987 0 6.67109 45.0987 0 162.439 -677.938 -83.0161 -13.1541 -0.565408 0.824812 1 0.5 0 1
234 1 56.9968 70.6482 0 56.9968 -8.61777 0 -111.681 -144.438 61.7762 88.9722 0.993907 -0.11022 1 0.5 0 1
235 1 31.9751 47.8065 0 31.9751 127.073 0 -337.107 258.327 -12.3393 -8.69524 -0.517473 0.8557 1 0.5 0 1
236 1 52.5821 65.1453 0 131.848 -14.1207 0 -237.909 -466.423 -13.2691 -10.0277 0.416471 -0.909149 1 0.5 0 1
237 1 69.3239 69.8883 0 69.3239 -9.37773 0 406.217 384.769 -49.6786 221.155 0.137573 -0.990492 1 0.5 0 1
238 1 69.8707 21.8626 0 69.8707 101.129 0 550.392 -558.39 -300.374 312.89 -0.321994 0.946742 1 0.5 0 1
239 1 3.36965 42.1825 0 82.6357 42.1825 0 299.815 -844.789 -46.9615 124.158 0.885466 0.464705 1 0.5 0 1
240 1 72.3674 18.0691 0 72.3674 18.0691 0 -490.55 344.126 40.2023 -21.2451 0.826893 -0.56236 1 0.5 0 1
241 1 47.5754 36.0413 0 47.5754 36.0413 0 520.316 -258.321 -71.1372 237.093 -0.462343 -0.886701 1 0.5 0 1
242 1 2.6996 62.7775 0 81.9656 -16.4885 0 485.006 -668.758 -60.8718 177.65 0.514523 0.857477 1 0.5 0 1
243 1 74.1352 73.9591 0 -84.3968 73.9591 0 -146.729 432.075 -37.3424 34.9325 -0.997282 0.0736785 1 0.5 0 1
244 1 60.378 25.1532 0 60.378 104.419 0 -394.117 -542.078 -37.5649 410.76 0.53786 0.843034 1 0.5 0 1
245 1 56.5408 50.5535 0 56.5408 50.5535 0 10.7825 -140.884 -82.1723 -17.2962 -0.780345 -0.625349 1 0.5 0 1
246 1 48.8693 41.0848 0 48.8693 41.0848 0 403.164 372.346 159.902 -194.357 -0.253482 -0.96734 1 0.5 0 1
247 1 66.9333 53.7952 0 66.9333 -25.4708 0 164.551 -401.174 -122.601 14.7479 0.788337 -0.615243 1 0.5 0 1
248 1 27.9442 38.6287 0 -51.3218 38.6287 0 868.546 92.2296 29.2628 -95.6226 0.292628 -0.956226 1 0.5 0 1
249 1 38.9367 52.5123 0 118.203 -26.7537 0 -322.839 660.459 55.2449 -14.2758 0.620634 -0.7841 1 0.5 0 1
250 1 50.9662 68.4793 0 209.498 68.4793 0 -268.937 -231.459 54.2684 -84.2791 0.725325 -0.688407 1 0.5 0 1
251 1 62.4368 12.984 0 62.4368 171.516 0 -226.188 -1232.18 41.7595 24.3601 0.35047 0.936574 1 0.5 0 1
252 1 60.6816 21.6296 0 60.6816 100.896 0 -16.2151 710.097 79.6257 -26.6522 -0.895608 0.444845 1 0.5 0 1
253 1 16.7812 48.7466 0 16.7812 48.7466 0 -222.022 -157.387 216.561 -16.7712 -0.929781 -0.368113 1 0.5 0 1
254 1 46.8869 33.0744 0 46.8869 112.34 0 468.317 143.551 85.9113 246.112 0.813001 -0.582262 1 0.5 0 1
255 1 1.54581 34.2747 0 80.8118 113.541 0 -262.073 40.2526 -39.2756 -131.535 0.429441 0.903095 1 0.5 0 1
256 1 68.5815 41.8901 0 -10.6845 41.8901 0 35.8999 54.967 53.4805 61.2531 -0.655509 -0.755187 1 0.5 0 1
257 1 7.67097 38.0963 0 7.67097 117.362 0 418.052 -116.179 -110.119 -41.4092 -0.982328 -0.187168 1 0.5 0 1
258 1 7.65507 26.1228 0 7.65507 -53.1432 0 968.24 -247.409 6.64397 42.0057 0.970859 0.239653 1 0.5 0 1
259 1 42.2536 55.3938 0 42.2536 55.3938 0 -281.578 105.412 2.80375 25.3084 -0.192899 -0.981219 1 0.5 0 1
260 1 69.901 68.2429 0 149.167 -11.0231 0 674.218 -537.568 -205.295 156.303 0.998897 0.0469612 1 0.5 0 1
261 1 7.8834 7.16728 0 7.8834 7.16728 0 -613.576 -495.555 -10.4748 99.4499 -0.104748 0.994499 1 0.5 0 1
262 1 57.1037 59.5287 0 136.37 -19.7373 0 202.869 759.11 69.4775 256.444 0.202303 -0.979323 1 0.5 0 1
263 1 0.867647 76.6717 0 -78.3984 -81.8603 0 8.05552 84.7703 2.38992 -99.9714 0.0238992 -0.999714 1 0.5 0 1
264 1 19.3567 42.6418 0 177.889 -36.6242 0 100.038 790.785 -12.3274 -18.9275 -0.773703 -0.633549 1 0.5 0 1
265 1 52.2483 28.6348 0 52.2483 107.901 0 237.479 -619.609 171.293 115.599 0.996813 -0.0797771 1 0.5 0 1
266 1 56.0625 52.1825 0 56.0625 52.1825 0 564.707 -339.386 58.3217 176.248 0.568948 0.822373 1 0.5 0 1
267 1 72.363 62.7252 0 -6.90296 -16.5408 0 -476.365 -192.376 99.7645 41.5586 -0.940793 -0.338981 1 0.5 0 1
268 1 66.4826 59.9669 0 66.4826 59.9669 0 971.078 282.357 -219.765 -22.509 0.696226 -0.717823 1 0.5 0 1
269 1 16.0957 55.0734 0 95.3617 55.0734 0 -471.844 567.546 -189.655 -21.5221 -0.881839 0.471551 1 0.5 0 1
270 1 63.9569 1.98571 0 63.9569 1.98571 0 272.607 251.676 -60.947 24.9682 -0.891265 0.453482 1 0.5 0 1
271 1 68.2869 12.6157 0 68.2869 12.6157 0 -378.908 345.659 127.965 -15.6348 0.978788 -0.204877 1 0.5 0 1
272 1 50.7516 38.081 0 50.7516 38.081 0 -902.433 -751.859 120.051 -42.1545 0.289587 -0.957152 1 0.5 0 1
273 1 59.9604 49.8089 0 59.9604 49.8089 0 567.532 -114.718 -65.7734 -287.2 0.607588 0.794253 1 0.5 0 1
274 1 66.2964 9.02675 0 66.2964 9.02675 0 -266.445 -428.109 -36.1081 -76.7831 0.97566 -0.219289 1 0.5 0 1
275 1 7.35475 61.4159 0 86.6208 -17.8501 0 -484.471 67.2973 119.981 -170.929 0.548895 0.835891 1 0.5 0 1
276 1 57.7755 44.7915 0 57.7755 44.7915 0 -314.237 -467.002 -28.9144 -150.124 -0.345425 0.938446 1 0.5 0 1
277 1 65.3415 9.53595 0 -13.9245 9.53595 0 -799.39 305.778 58.1358 -19.8269 0.967216 -0.253955 1 0.5 0 1
278 1 9.97407 32.3259 0 -69.2919 111.592 0 648.417 -510.244 -78.9479 168.877 0.607097 -0.794628 1 0.5 0 1
279 1 25.8706 54.0542 0 105.137 -104.478 0 -990.557 148.909 21.0404 -76.2328 -0.403548 -0.914958 1 0.5 0 1
280 1 5.29497 78.4894 0 -73.971 -80.0426 0 306.425 314.651 -77.5183 -63.1737 -0.775183 -0.631737 1 0.5 0 1
281 1 68.2732 56.0519 0 68.2732 56.0519 0 366.567 -102.064 -168.654 -96.3601 -0.22348 0.974709 1 0.5 0 1
282 1 47.6647 47.0013 0 47.6647 -32.2647 0 430.93 -1048.29 -149.109 -87.7683 0.882655 -0.470021 1 0.5 0 1
283 1 68.7112 31.4595 0 -10.5548 110.726 0 -67.4385 -752.423 262.373 -142.881 -0.961461 -0.274941 1 0.5 0 1
284 1 6.40554 28.5396 0 6.40554 107.806 0 204.417 -152.989 -1.04608 40.8885 -0.119016 0.992892 1 0.5 0 1