ITEM: TIMESTEP
200000
ITEM: NUMBER OF ATOMS
4000
ITEM: BOX BOUNDS pp pp pp
0.0000000000000000e+00 7.9266000000000005e+01
0.0000000000000000e+00 7.9266000000000005e+01
-5.0000000000000000e-01 5.0000000000000000e-01
ITEM: ATOMS id type x y z xu yu zu vx vy fx fy mux muy mu radius omegaz mass
1 1 3.23992 62.3014 0 82.5059 62.3014 0 -91.9658 -214.503 -30.8552 48.4244 -0.790495 -0.612468 1 0.5 0 1
2 1 24.0878 65.9568 0 24.0878 -13.3092 0 91.8459 382.595 -112.129 -24.0748 0.732009 0.681295 1 0.5 0 1
3 1 28.1382 47.5838 0 28.1382 -31.6822 0 -737.026 -1247.83 16.6414 150.902 -0.935494 0.353343 1 0.5 0 1
4 1 49.4391 8.7732 0 49.4391 88.0392 0 -344.612 -961.872 -62.7017 -77.9006 -0.627017 -0.779006 1 0.5 0 1
5 1 6.49194 29.134 0 6.49194 29.134 0 -944.127 -208.8 -115.016 34.8405 -0.77153 -0.636192 1 0.5 0 1
6 1 73.8812 27.1565 0 -5.38479 27.1565 0 116.932 -366.164 69.9212 -78.6806 -0.928321 0.371778 1 0.5 0 1
7 1 68.6961 46.7609 0 68.6961 46.7609 0 84.7427 851.84 -227.689 77.9693 -0.300219 0.95387 1 0.5 0 1
8 1 24.6047 54.5913 0 24.6047 -24.6747 0 364.625 -344.774 -102.086 -10.3719 -0.0683755 -0.99766 1 0.5 0 1
9 1 69.4018 23.8061 0 69.4018 23.8061 0 -190.419 408.99 -5.65709 -29.0707 -0.628796 -0.77757 1 0.5 0 1
10 1 23.3375 48.5292 0 23.3375 48.5292 0 -297.51 -945.021 68.9936 34.0593 -0.938519 -0.345227 1 0.5 0 1
11 1 35.9333 10.5418 0 -43.3327 10.5418 0 254.166 -123.747 69.9516 5.01411 -0.43319 -0.901303 1 0.5 0 1
12 1 2.12479 19.553 0 81.3908 98.819 0 -70.6137 -202.044 -52.5687 -15.6332 -0.500722 0.865608 1 0.5 0 1
13 1 43.3691 24.3396 0 43.3691 24.3396 0 616.945 -46.7585 63.9964 -76.8405 0.639964 -0.768405 1 0.5 0 1
14 1 9.85858 12.7828 0 -69.4074 12.7828 0 723.322 533.205 -88.6485 -46.2758 -0.886485 -0.462758 1 0.5 0 1
15 1 12.1201 30.2645 0 12.1201 30.2645 0 241.772 248.304 -87.4639 76.3325 -0.914103 0.405483 1 0.5 0 1
16 1 37.7971 51.4288 0 -41.4689 -27.8372 0 -279.237 -590.071 68.0105 -12.3805 -0.437196 -0.899366 1 0.5 0 1
17 1 8.0399 10.9016 0 87.3059 90.1676 0 1323.19 191.31 94.114 33.8016 0.94114 0.338016 1 0.5 0 1
18 1 20.1291 46.4005 0 20.1291 46.4005 0 -206.557 -1217.71 -56.2638 227.425 0.515636 0.856808 1 0.5 0 1
19 1 6.68745 38.812 0 6.68745 38.812 0 -340.761 153.843 132.466 -21.4553 -0.0761425 0.997097 1 0.5 0 1
20 1 18.1032 53.7039 0 18.1032 53.7039 0 560.631 -239.609 77.6074 47.7268 0.932396 0.361439 1 0.5 0 1
21 1 17.9986 21.9918 0 17.9986 21.9918 0 65.2703 -604.274 -77.955 62.634 -0.77955 0.62634 1 0.5 0 1
22 1 72.19 22.2398 0 72.19 22.2398 0 1252.46 422.995 24.1289 -20.1254 0.956598 -0.291412 1 0.5 0 1
23 1 18.5946 2.2387 0 97.8606 2.2387 0 -456.111 -907.451 69.3973 -50.7863 0.991004 -0.133833 1 0.5 0 1
24 1 66.1096 54.95 0 66.1096 -24.316 0 -1076.75 326.789 356.903 109.986 0.511866 -0.859065 1 0.5 0 1
25 1 31.6414 47.4843 0 -47.6246 -31.7817 0 -343.418 -850.575 -26.9695 4.4452 -0.645461 -0.763793 1 0.5 0 1
26 1 46.2288 27.819 0 46.2288 -51.447 0 -74.8364 85.3485 -104.668 -14.0906 0.250311 -0.968165 1 0.5 0 1
27 1 2.49677 13.7876 0 2.49677 93.0536 0 -211.588 -578.726 20.4519 -25.6722 -0.670778 0.741658 1 0.5 0 1
28 1 30.1109 67.0634 0 30.1109 67.0634 0 377.941 -263.094 -71.0095 44.0704 -0.975675 0.219224 1 0.5 0 1
29 1 76.7799 36.6293 0 -2.48607 36.6293 0 39.8692 -49.3957 -39.4038 -59.0835 -0.887392 0.461016 1 0.5 0 1
30 1 56.9539 21.6816 0 56.9539 100.948 0 -495.973 -48.9804 -84.8754 -21.3652 0.987315 0.158775 1 0.5 0 1
31 1 77.9323 23.6292 0 -1.33369 23.6292 0 913.709 250.288 -83.9863 -136.897 -0.907114 -0.420885 1 0.5 0 1
32 1 30.7373 29.013 0 30.7373 29.013 0 -301.802 -39.3086 -47.6832 13.5711 -0.93925 0.343234 1 0.5 0 1
33 1 64.5191 56.1869 0 64.5191 -23.0791 0 -280.153 374.868 -8.95337 -113.211 0.905555 0.424228 1 0.5 0 1
34 1 8.00259 42.1731 0 87.2686 42.1731 0 236.613 302.2 -167.639 -47.7 -0.339791 0.940501 1 0.5 0 1
35 1 32.1928 63.3802 0 -47.0732 63.3802 0 -476.662 57.9848 -148.183 51.2125 -0.999892 0.0146656 1 0.5 0 1
36 1 60.8179 55.4418 0 60.8179 -23.8242 0 432.612 158.667 -149.435 232.665 -0.149527 -0.988758 1 0.5 0 1
37 1 72.0111 39.9729 0 72.0111 39.9729 0 100.726 328.935 -66.2688 -103.131 0.547332 0.836916 1 0.5 0 1
38 1 19.2556 73.9205 0 98.5216 73.9205 0 -418.692 506.4 -16.1608 149.45 0.574553 0.818467 1 0.5 0 1
39 1 40.7597 19.396 0 40.7597 -59.87 0 343.002 -511.579 71.0563 -45.6744 0.851193 -0.524853 1 0.5 0 1
40 1 18.5446 44.2442 0 -60.7214 44.2442 0 -976.485 799.833 -49.9592 75.8014 0.273193 0.961959 1 0.5 0 1
41 1 69.919 50.0292 0 69.919 50.0292 0 -842.69 -47.1066 41.1038 -112.774 -0.879842 -0.475266 1 0.5 0 1
42 1 74.3125 57.3762 0 -4.95346 57.3762 0 -78.721 -76.3719 -83.6952 -232.502 -0.764545 -0.64457 1 0.5 0 1
43 1 35.2173 78.1412 0 -44.0487 78.1412 0 536.141 37.8511 -13.6818 115.724 -0.982911 0.18408 1 0.5 0 1
44 1 62.0514 18.9114 0 62.0514 98.1774 0 649.979 72.1675 127.373 -114.39 0.978871 -0.204478 1 0.5 0 1
45 1 37.6609 0.812196 0 37.6609 0.812196 0 -904.836 223.767 -28.5001 -37.5678 -0.455424 -0.890275 1 0.5 0 1
46 1 9.41855 39.1306 0 9.41855 39.1306 0 -146.004 -963.363 91.1792 36.4232 0.466352 0.884599 1 0.5 0 1
47 1 41.5998 71.7498 0 41.5998 -7.5162 0 58.4287 242.285 26.6107 -144.029 0.518192 -0.855264 1 0.5 0 1
48 1 15.2449 43.8421 0 15.2449 43.8421 0 175.317 106.906 -13.2843 -58.1967 -0.947579 -0.319521 1 0.5 0 1
49 1 22.4229 6.97347 0 101.689 86.2395 0 -149.832 -360.109 -50.5623 -100.152 -0.862072 -0.506786 1 0.5 0 1
50 1 50.6002 28.8828 0 50.6002 28.8828 0 980.284 -251.06 -164.803 49.6369 0.245188 0.969476 1 0.5 0 1
51 1 74.6599 14.3957 0 -4.60611 14.3957 0 -498.272 183.073 19.5593 -0.978701 -0.953301 0.302021 1 0.5 0 1
52 1 8.14728 27.7561 0 87.4133 27.7561 0 508.489 -65.5539 -29.1163 53.309 -0.699749 0.714388 1 0.5 0 1
53 1 15.5263 49.3353 0 15.5263 128.601 0 -731.11 -580.769 -20.093 -6.16767 -0.914176 0.405318 1 0.5 0 1
54 1 55.6852 26.9039 0 55.6852 26.9039 0 514.074 369.209 80.5327 -35.2529 0.29591 -0.955216 1 0.5 0 1
55 1 29.0984 11.951 0 108.364 91.217 0 -586.337 228.736 59.7672 67.5899 0.677544 0.735482 1 0.5 0 1
56 1 25.5852 46.5636 0 25.5852 46.5636 0 136.603 121.843 -11.8546 -2.11606 -0.683175 0.730255 1 0.5 0 1
57 1 33.1784 76.2115 0 33.1784 76.2115 0 -111.476 566.805 -38.5953 6.91454 -0.952597 0.304234 1 0.5 0 1
58 1 71.1293 24.7724 0 -8.13668 24.7724 0 -398.191 -302.67 52.2778 -71.8298 -0.573155 0.819447 1 0.5 0 1
59 1 54.9097 31.1185 0 54.9097 31.1185 0 -111.35 242.683 -104.869 -92.0276 -0.237942 0.971279 1 0.5 0 1
60 1 58.4999 37.5218 0 58.4999 37.5218 0 -358.156 14.1015 122.659 -192.134 0.998547 -0.0538917 1 0.5 0 1
61 1 61.0674 41.0812 0 61.0674 41.0812 0 -122.669 -186.047 123.93 -169.576 -0.242215 0.970222 1 0.5 0 1
62 1 18.3887 6.87233 0 97.6547 6.87233 0 298.257 91.9347 -55.8055 61.7795 0.625266 0.780412 1 0.5 0 1
63 1 24.8666 18.7049 0 -54.3994 18.7049 0 335.689 709.33 -36.2671 -55.5522 -0.637375 -0.770554 1 0.5 0 1
64 1 14.2394 15.0788 0 93.5054 94.3448 0 -401.398 434.373 -14.8474 -65.466 0.99881 0.0487664 1 0.5 0 1
65 1 35.4426 33.8689 0 114.709 113.135 0 322.611 -64.8614 0.789225 -82.3116 0.412616 -0.910905 1 0.5 0 1
66 1 20.3345 14.5581 0 99.6005 93.8241 0 -219.402 -351.856 68.7597 -5.96025 0.254479 0.967078 1 0.5 0 1
67 1 56.4288 39.5009 0 56.4288 39.5009 0 89.5277 28.5141 30.4117 32.4561 0.850755 0.525562 1 0.5 0 1
68 1 33.1666 52.349 0 33.1666 52.349 0 1059.21 42.7186 -15.8904 43.5683 0.321291 -0.946981 1 0.5 0 1
69 1 18.6331 58.4038 0 18.6331 58.4038 0 -287.788 -205.566 -2.89829 54.4811 0.116466 -0.993195 1 0.5 0 1
70 1 50.4295 35.4234 0 50.4295 114.689 0 -405.293 -461.045 -137.186 -20.5063 0.932383 0.361472 1 0.5 0 1
71 1 42.5051 3.9477 0 42.5051 3.9477 0 -101.498 -346.502 70.0265 -46.4619 0.898171 -0.439647 1 0.5 0 1
72 1 3.34117 55.0787 0 3.34117 55.0787 0 433.041 -860.929 -199.862 105.763 -0.937791 -0.347201 1 0.5 0 1
73 1 26.4796 28.0939 0 26.4796 28.0939 0 -865.136 -283.582 -36.075 103.822 -0.400968 0.916092 1 0.5 0 1
74 1 71.5027 11.9833 0 71.5027 91.2493 0 -304.546 1150.77 87.0323 -55.5735 -0.966582 0.256359 1 0.5 0 1
75 1 78.3704 35.5429 0 -0.895635 35.5429 0 -584.798 -133.535 165.454 -51.004 -0.218188 0.975907 1 0.5 0 1
76 1 53.6099 29.8238 0 -25.6561 29.8238 0 106.497 162.301 -1.57279 -90.7204 -0.87529 0.483599 1 0.5 0 1
77 1 2.26977 32.3506 0 2.26977 32.3506 0 -741.34 122.306 169.52 -25.8195 0.965805 0.259268 1 0.5 0 1
78 1 14.7628 70.8209 0 14.7628 70.8209 0 128.565 399.892 45.3174 -91.3015 0.985133 0.171792 1 0.5 0 1
79 1 16.0764 77.426 0 16.0764 77.426 0 243.034 -75.3759 -93.2636 -33.338 -0.528619 -0.848859 1 0.5 0 1
80 1 4.65022 23.0639 0 4.65022 -56.2021 0 572.632 -122.224 10.8996 -38.2554 -0.760715 0.649086 1 0.5 0 1
81 1 48.1774 33.7879 0 127.443 33.7879 0 191.133 71.7605 -212.877 78.5606 0.0780949 -0.996946 1 0.5 0 1
82 1 3.70734 36.5726 0 3.70734 36.5726 0 -247.248 41.0474 -128.291 -136.479 0.796292 0.604913 1 0.5 0 1
83 1 4.60299 13.5544 0 83.869 92.8204 0 29.0407 -68.5252 85.5468 98.3582 0.365477 0.93082 1 0.5 0 1
84 1 78.5003 42.6901 0 -0.765712 42.6901 0 419.461 -174.435 -96.0998 -203.46 -0.354801 -0.934942 1 0.5 0 1
85 1 20.6774 56.7393 0 20.6774 -22.5267 0 -946.478 -345.381 23.9406 -85.3023 0.955612 0.29463 1 0.5 0 1
86 1 14.4799 38.125 0 14.4799 38.125 0 -145.783 -548.06 22.3358 9.68028 -0.985493 0.169715 1 0.5 0 1
87 1 24.4562 42.5362 0 24.4562 42.5362 0 166.837 -778.77 -93.9857 -34.1569 -0.939857 -0.341569 1 0.5 0 1
88 1 27.7713 9.4125 0 27.7713 9.4125 0 515.354 -185.867 38.8394 27.6374 0.0457182 -0.998954 1 0.5 0 1
89 1 24.3626 62.9114 0 24.3626 62.9114 0 -844.674 -405.147 51.1634 -38.4485 0.999055 -0.0434613 1 0.5 0 1
90 1 7.03802 35.3181 0 7.03802 35.3181 0 394.468 135.621 60.7902 -17.5084 -0.992173 -0.124871 1 0.5 0 1
91 1 17.1027 59.856 0 17.1027 -19.41 0 50.0964 -284.478 4.88784 18.1046 -0.163068 -0.986615 1 0.5 0 1
92 1 3.2744 52.1502 0 3.2744 52.1502 0 -831.647 -596.902 22.8928 -116.359 -0.929434 0.368988 1 0.5 0 1
93 1 3.63389 42.8324 0 3.63389 42.8324 0 -92.6119 -454.627 163.506 -139.913 0.971046 0.238891 1 0.5 0 1
94 1 72.9639 34.0404 0 72.9639 34.0404 0 41.0122 372.377 20.2566 35.8956 0.998748 -0.0500285 1 0.5 0 1
95 1 68.6005 45.7963 0 68.6005 45.7963 0 -154.346 399.01 -26.3043 -98.7646 0.881653 0.471898 1 0.5 0 1
96 1 56.1785 38.5454 0 56.1785 38.5454 0 356.084 496.077 -11.516 -149.28 0.730487 0.682926 1 0.5 0 1
97 1 51.3459 28.2072 0 51.3459 28.2072 0 285.251 -287.773 -4.60982 -8.53848 -0.809509 -0.587107 1 0.5 0 1
98 1 43.471 7.17257 0 43.471 86.4386 0 -225.738 267.093 -92.1442 -34.9928 0.978853 -0.204564 1 0.5 0 1
99 1 35.1783 52.0124 0 35.1783 -27.2536 0 335.583 -29.3416 43.2875 103.046 0.860198 -0.50996 1 0.5 0 1
100 1 74.7593 41.1102 0 74.7593 41.1102 0 -287.848 598.545 43.1895 -409.835 -0.976706 -0.214582 1 0.5 0 1
101 1 50.5518 44.8421 0 50.5518 -34.4239 0 -433.109 -415.463 -13.7409 40.9498 0.712947 -0.701218 1 0.5 0 1
102 1 1.54053 40.0808 0 1.54053 40.0808 0 126.6 -534.23 -134.256 240.418 -0.945241 0.326373 1 0.5 0 1
103 1 51.8818 13.1531 0 -27.3842 92.4191 0 -388.71 499.876 -28.3564 15.9754 -0.622422 0.782681 1 0.5 0 1
104 1 55.7166 40.168 0 55.7166 119.434 0 201.128 -292.44 -157.894 -210.94 0.843096 0.537763 1 0.5 0 1
105 1 49.7309 4.08136 0 -29.5351 4.08136 0 -355.708 633.029 57.7482 81.6404 0.577482 0.816404 1 0.5 0 1
106 1 79.1769 15.3049 0 -0.089105 15.3049 0 310.001 110.308 -90.7307 -55.5399 -0.871082 0.491137 1 0.5 0 1
107 1 64.3046 33.6269 0 64.3046 33.6269 0 -5.8831 205.945 97.511 -131.943 -0.909412 0.415896 1 0.5 0 1
108 1 2.52089 34.2502 0 2.52089 113.516 0 101.627 110.97 -27.2418 -70.3524 0.633178 0.774006 1 0.5 0 1
109 1 37.0431 65.0188 0 -42.2229 65.0188 0 116.163 -103.409 -129.64 -1.99291 -0.79812 0.602498 1 0.5 0 1
110 1 48.5294 31.1236 0 48.5294 31.1236 0 67.4142 414.499 11.9088 -130.097 0.782902 0.622145 1 0.5 0 1
111 1 54.5874 63.2854 0 54.5874 63.2854 0 328.792 -248.132 46.6576 88.4481 0.466576 0.884481 1 0.5 0 1
112 1 11.752 46.1232 0 11.752 46.1232 0 279.638 -150.834 -142.49 -103.936 -0.999094 -0.0425472 1 0.5 0 1
113 1 39.6302 60.2784 0 -39.6358 60.2784 0 278.466 133.649 -52.7847 84.9339 -0.527847 0.849339 1 0.5 0 1
114 1 54.3935 51.5456 0 54.3935 51.5456 0 -249.315 76.6702 11.4809 -119.935 0.916552 -0.399916 1 0.5 0 1
115 1 53.2178 75.9332 0 -26.0482 -3.3328 0 -323.37 249.608 53.1757 -76.5899 0.666682 -0.745343 1 0.5 0 1
116 1 34.4844 62.3751 0 34.4844 -16.8909 0 -256.129 -243.737 2.2097 -114.295 -0.887897 -0.460043 1 0.5 0 1
117 1 28.856 51.9754 0 28.856 51.9754 0 -921.103 -34.8391 15.5476 -102.311 -0.833603 -0.552364 1 0.5 0 1
118 1 56.8523 37.8459 0 56.8523 37.8459 0 -652.409 -700.564 -71.5569 62.3519 0.121217 -0.992626 1 0.5 0 1
119 1 73.0995 74.4613 0 73.0995 -4.80466 0 145.95 -28.153 83.9921 -25.0781 0.844034 -0.536289 1 0.5 0 1
120 1 45.6962 10.8098 0 124.962 10.8098 0 -59.1178 290.017 2.95133 -99.9564 0.0295133 -0.999564 1 0.5 0 1
121 1 22.5206 5.89928 0 -56.7454 5.89928 0 -528.951 -485.523 -102.788 -25.068 -0.950976 -0.309264 1 0.5 0 1
122 1 54.6078 21.7613 0 54.6078 101.027 0 -55.1115 383.147 -74.9103 5.10099 0.78697 0.616991 1 0.5 0 1
123 1 78.5167 29.21 0 -0.749347 29.21 0 216.445 212.748 -34.8017 78.6052 -0.439828 0.898082 1 0.5 0 1
124 1 26.1115 49.254 0 26.1115 49.254 0 220.785 234.099 -87.3972 119.869 -0.998532 -0.0541731 1 0.5 0 1
125 1 67.6476 23.864 0 67.6476 23.864 0 456.556 -11.4147 -34.0422 -77.0844 0.971128 -0.23856 1 0.5 0 1
126 1 10.2765 30.1267 0 89.5425 109.393 0 452.741 190.272 -82.0158 -30.2486 -0.0805186 0.996753 1 0.5 0 1
127 1 60.8938 27.3514 0 60.8938 106.617 0 598.116 -169.661 85.7439 -88.8098 0.857281 0.514848 1 0.5 0 1
128 1 8.72866 25.4371 0 -70.5373 25.4371 0 383.62 536.467 -107.49 -39.6557 -0.877626 -0.479346 1 0.5 0 1
129 1 67.89 54.783 0 67.89 -24.483 0 327.772 -151.805 -80.2314 -16.3428 0.159307 -0.987229 1 0.5 0 1
130 1 73.8129 53.4594 0 73.8129 -25.8066 0 148.382 -716.348 -103.8 -32.8471 -0.557289 -0.830319 1 0.5 0 1
131 1 56.0283 12.6069 0 -23.2377 91.8729 0 -244.201 404.234 -120.096 -15.4649 0.485941 0.873991 1 0.5 0 1
132 1 63.5917 28.7443 0 -15.6743 108.01 0 216.172 -319.513 218.97 -49.4418 0.453406 0.891304 1 0.5 0 1
133 1 51.5672 29.2383 0 51.5672 108.504 0 404.387 3.31519 94.9759 6.8066 -0.873311 0.487164 1 0.5 0 1
134 1 28.1326 49.32 0 28.1326 49.32 0 78.2527 337.488 9.42392 -73.992 -0.724016 -0.689783 1 0.5 0 1
135 1 21.0945 46.1967 0 21.0945 125.463 0 -128.844 97.4021 46.9833 -47.6218 -0.777977 0.628293 1 0.5 0 1
136 1 20.1584 21.427 0 20.1584 100.693 0 -49.0565 318.865 9.766 -46.8628 -0.227405 -0.9738 1 0.5 0 1
137 1 51.4355 74.5333 0 130.701 74.5333 0 -420.778 185.346 -21.7302 97.6104 -0.217302 0.976104 1 0.5 0 1
138 1 74.7347 5.44546 0 -4.53128 5.44546 0 318.47 527.946 -56.8176 -82.2907 -0.568176 -0.822907 1 0.5 0 1
139 1 28.6436 56.5961 0 28.6436 -22.6699 0 -1547.91 316.091 87.1916 16.3817 0.492406 -0.870365 1 0.5 0 1
140 1 27.6013 0.131827 0 27.6013 0.131827 0 -472.762 90.0817 -196.271 -56.6127 -0.962764 0.270343 1 0.5 0 1
141 1 9.2498 52.8845 0 9.2498 52.8845 0 151.078 624.796 33.3627 -44.0416 -0.447486 -0.894291 1 0.5 0 1
142 1 22.4506 73.031 0 22.4506 73.031 0 -68.0044 -624.824 -26.1356 70.3702 -0.48128 0.876567 1 0.5 0 1
143 1 12.0256 31.3206 0 12.0256 110.587 0 -727.896 30.179 13.111 9.65289 -0.999447 0.0332581 1 0.5 0 1
144 1 36.7302 44.4402 0 36.7302 -34.8258 0 -14.9717 -36.1966 -87.3174 -56.6645 -0.992824 0.119584 1 0.5 0 1
145 1 70.2537 15.7345 0 70.2537 95.0005 0 -287.863 107.652 137.96 73.2224 0.999857 -0.0169214 1 0.5 0 1
146 1 40.0358 73.031 0 40.0358 -6.23501 0 -411.944 118.513 87.5329 -42.872 0.762266 -0.647264 1 0.5 0 1
147 1 75.9853 66.2163 0 75.9853 -13.0497 0 -429.298 193.076 -28.4919 -7.11679 0.356177 -0.934419 1 0.5 0 1
148 1 23.8719 16.3581 0 103.138 16.3581 0 321.34 1031.56 62.3238 -28.2758 -0.0378958 0.999282 1 0.5 0 1
149 1 75.8505 29.0111 0 75.8505 108.277 0 30.3627 -456.29 80.4887 104.067 0.499111 -0.866538 1 0.5 0 1
150 1 70.1655 32.8112 0 -9.10048 32.8112 0 -435.926 -218.519 -30.6172 -7.56321 0.328621 0.944462 1 0.5 0 1
151 1 2.48188 54.6197 0 81.7479 -24.6463 0 -291.164 -86.9908 -91.7835 -313.243 0.943888 -0.330266 1 0.5 0 1
152 1 31.3645 40.8642 0 31.3645 120.13 0 255.252 151.907 39.1864 -92.0023 0.391864 -0.920023 1 0.5 0 1
153 1 75.9641 57.1363 0 75.9641 57.1363 0 109.282 -307.946 62.2 -71.3665 0.999159 -0.0410028 1 0.5 0 1
154 1 3.98743 46.7007 0 3.98743 46.7007 0 -316.922 -170.871 220.197 -42.9534 -0.655251 -0.755411 1 0.5 0 1
155 1 70.5355 2.28852 0 -87.9965 2.28852 0 390.871 332.371 -22.9478 -80.0077 -0.313919 -0.94945 1 0.5 0 1
156 1 75.3966 45.8591 0 75.3966 45.8591 0 -147.089 -1240.13 -24.3376 -64.7175 -0.971957 0.235159 1 0.5 0 1
157 1 78.8596 18.5242 0 -0.406439 18.5242 0 -449.28 -303.189 -82.7901 -43.4932 -0.0607048 0.998156 1 0.5 0 1
158 1 69.6839 36.2813 0 -9.58213 36.2813 0 -971.278 -31.9486 215.571 -196.148 -0.983384 0.181538 1 0.5 0 1
159 1 61.4293 0.321209 0 61.4293 79.5872 0 -94.9157 -920.35 -37.0867 -93.9788 -0.376923 -0.926245 1 0.5 0 1
160 1 29.9595 9.80455 0 29.9595 9.80455 0 365.11 -377.298 -62.2531 -47.976 -0.579455 0.815004 1 0.5 0 1
161 1 21.062 71.4488 0 21.062 -7.81721 0 -356.023 294.488 103.648 90.1895 0.999096 -0.0425207 1 0.5 0 1
162 1 6.65597 49.1347 0 6.65597 49.1347 0 -62.4089 92.922 87.533 -45.5015 -0.152542 -0.988297 1 0.5 0 1
163 1 65.3932 45.6126 0 65.3932 45.6126 0 831.361 -53.1466 -71.9391 43.1795 -0.790775 -0.612107 1 0.5 0 1
164 1 27.4118 29.3215 0 27.4118 29.3215 0 345.77 -141.145 70.3184 -71.1008 0.703184 -0.711008 1 0.5 0 1
165 1 31.1323 49.3611 0 31.1323 -29.9049 0 -690.654 -55.2752 218.342 84.5937 -0.886306 0.4631 1 0.5 0 1
166 1 12.4423 42.4604 0 12.4423 42.4604 0 -221.617 -136.977 53.5664 23.4676 -0.999999 -0.00128741 1 0.5 0 1
167 1 66.7841 23.3791 0 66.7841 23.3791 0 1357.07 129.449 51.0472 24.2099 0.0317299 -0.999496 1 0.5 0 1
168 1 2.42751 16.208 0 2.42751 95.474 0 562.906 -447.425 73.1663 -75.3967 -0.957531 -0.288332 1 0.5 0 1
169 1 15.5108 57.7968 0 15.5108 137.063 0 -503.734 560.819 -106.212 -19.4097 -0.775734 0.631061 1 0.5 0 1
170 1 16.3813 27.7841 0 95.6473 107.05 0 269.158 258.419 36.4978 -6.65545 0.773016 0.634387 1 0.5 0 1
171 1 46.2516 29.4967 0 125.518 29.4967 0 -171.369 -35.1344 64.0027 -11.6383 0.97391 0.226936 1 0.5 0 1
172 1 7.45225 53.8467 0 7.45225 -25.4193 0 -346.469 -174.01 49.6729 31.9024 -0.979099 -0.203386 1 0.5 0 1
173 1 23.734 60.6545 0 23.734 -18.6115 0 263.165 -270.926 -19.1793 18.0189 -0.651224 -0.758886 1 0.5 0 1
174 1 9.18387 49.7093 0 9.18387 49.7093 0 -368.142 -103.148 39.9944 51.2688 -0.749303 0.662228 1 0.5 0 1
175 1 0.643437 16.0206 0 0.643437 16.0206 0 -410.994 309.56 47.8007 12.2672 -0.910163 0.414251 1 0.5 0 1
176 1 10.9135 47.6514 0 10.9135 47.6514 0 222.658 -368.718 -213.791 86.5099 -0.994121 0.108279 1 0.5 0 1
177 1 18.0804 3.21349 0 18.0804 82.4795 0 -42.4778 -87.6783 -95.1363 -33.9763 -0.885396 -0.464838 1 0.5 0 1
178 1 60.0439 25.2558 0 -19.2221 104.522 0 -52.759 -454.859 -12.0698 179.236 0.0242336 0.999706 1 0.5 0 1
179 1 4.14054 52.6029 0 4.14054 -26.6631 0 217.561 919.38 -24.4554 -38.0622 -0.432911 -0.901437 1 0.5 0 1
180 1 76.2491 39.0698 0 76.2491 39.0698 0 371.327 -389.975 -338.513 -116.676 -0.828368 0.560184 1 0.5 0 1
181 1 57.7204 22.3104 0 57.7204 22.3104 0 -509.803 -161.865 99.9538 -29.8845 -0.967927 0.251231 1 0.5 0 1
182 1 0.376461 5.02283 0 0.376461 84.2888 0 -175.9 -303.778 -95.3865 -30.0237 -0.953865 -0.300237 1 0.5 0 1
183 1 59.9007 53.03 0 59.9007 -26.236 0 116.898 -250.5 -145.073 -23.9459 0.452435 0.891797 1 0.5 0 1
184 1 65.7955 39.1874 0 65.7955 39.1874 0 821.904 -580.102 -125.629 18.0862 -0.577734 0.816225 1 0.5 0 1
185 1 13.0653 36.9875 0 13.0653 36.9875 0 -155.454 -309.14 56.0696 -40.0179 -0.316586 -0.948564 1 0.5 0 1
186 1 18.4321 74.6264 0 18.4321 74.6264 0 85.6634 -236.449 6.99012 -9.90006 -0.425524 0.904947 1 0.5 0 1
187 1 59.6289 31.6487 0 -19.6371 110.915 0 -15.4485 -495.893 37.5562 241.877 0.791227 0.611523 1 0.5 0 1
188 1 22.8718 78.0219 0 102.138 78.0219 0 -72.0258 74.7979 62.5455 -6.17716 0.918574 0.39525 1 0.5 0 1
189 1 30.0227 17.4193 0 30.0227 17.4193 0 11.1013 -678.481 -3.04978 89.4769 -0.0330885 0.999452 1 0.5 0 1
190 1 38.9955 65.3362 0 -40.2705 65.3362 0 61.3202 -307.367 -51.7121 -78.8136 -0.996332 0.0855735 1 0.5 0 1
191 1 59.8823 16.0082 0 139.148 16.0082 0 -180.52 -271.67 18.4124 -8.93112 0.981529 0.191315 1 0.5 0 1
192 1 61.9222 34.3154 0 61.9222 34.3154 0 -612.214 45.5223 -84.0359 24.0397 0.584141 -0.811652 1 0.5 0 1
193 1 33.0084 34.4577 0 -46.2576 34.4577 0 47.0838 595.295 25.816 96.6102 0.25816 0.966102 1 0.5 0 1
194 1 24.8548 51.97 0 24.8548 51.97 0 306.162 -672.225 -77.3142 -91.8877 -0.28397 -0.958833 1 0.5 0 1
195 1 57.297 25.9866 0 57.297 25.9866 0 -265.935 -428.716 -35.498 83.1941 -0.491499 0.870878 1 0.5 0 1
196 1 61.1251 37.4486 0 61.1251 37.4486 0 267.72 -182.129 134.272 -122.1 -0.667833 -0.744311 1 0.5 0 1
197 1 71.0692 59.0229 0 -8.19684 59.0229 0 100.946 435.734 -37.9963 46.5599 0.907492 0.420069 1 0.5 0 1
198 1 75.8345 42.442 0 75.8345 42.442 0 -246.37 648.473 -113.17 -105.227 -0.977425 0.211283 1 0.5 0 1
199 1 69.7102 63.3433 0 -9.55577 -15.9227 0 1006.38 -273.749 86.4847 19.9681 0.662819 -0.74878 1 0.5 0 1
200 1 44.4832 76.9259 0 44.4832 76.9259 0 -80.6206 -192.619 62.5456 58.3817 0.996861 0.0791658 1 0.5 0 1
201 1 13.6632 70.9811 0 13.6632 -8.28487 0 -135.034 505.324 88.155 42.262 0.902448 0.430799 1 0.5 0 1
202 1 57.8075 55.059 0 -21.4585 -24.207 0 634.214 -480.284 -139.054 44.8736 -0.302645 -0.953103 1 0.5 0 1
203 1 41.9601 70.715 0 -37.3059 70.715 0 -82.1206 -551.795 -16.5389 -57.1478 -0.961871 -0.273502 1 0.5 0 1
204 1 65.5425 69.1474 0 65.5425 -10.1186 0 -261.724 -458.706 42.7062 -90.9942 0.469868 -0.882736 1 0.5 0 1
205 1 18.8699 51.777 0 18.8699 51.777 0 -105.499 -293.717 -292.267 -126.973 -0.813868 0.58105 1 0.5 0 1
206 1 1.59637 56.0532 0 1.59637 -23.2128 0 -316.939 8.10364 87.7666 254.045 -0.893355 -0.449351 1 0.5 0 1
207 1 26.7671 75.2429 0 26.7671 75.2429 0 325.007 -261.257 -65.4039 -80.1084 0.169659 0.985503 1 0.5 0 1
208 1 16.6952 35.3105 0 16.6952 35.3105 0 -36.5295 93.3404 -35.599 67.9386 -0.988464 -0.151453 1 0.5 0 1
209 1 45.5038 24.9018 0 45.5038 104.168 0 -219.729 -92.806 72.5232 68.8504 0.725232 0.688504 1 0.5 0 1
210 1 65.8 59.7025 0 -13.466 59.7025 0 382.084 -618.17 -88.7768 -27.4381 -0.478336 -0.878177 1 0.5 0 1
211 1 63.2271 39.0726 0 63.2271 39.0726 0 -561.985 -58.2355 -265.578 -56.421 0.315906 -0.94879 1 0.5 0 1
212 1 68.8979 66.3635 0 148.164 -12.9025 0 21.58 -141.751 89.988 43.6137 0.89988 0.436137 1 0.5 0 1
213 1 69.6228 61.347 0 69.6228 61.347 0 -159.183 282.649 90.3789 -38.3477 -0.358287 0.933611 1 0.5 0 1
214 1 61.1641 23.8494 0 61.1641 103.115 0 -325.648 -156.906 -98.0593 49.7003 -0.274556 -0.961571 1 0.5 0 1
215 1 40.5291 71.9199 0 40.5291 -7.34607 0 -645.024 -182.303 263.426 -83.6477 0.785818 -0.618457 1 0.5 0 1
216 1 23.4771 46.8651 0 23.4771 126.131 0 601.914 388.24 -8.72019 -143.325 0.569805 0.82178 1 0.5 0 1
217 1 5.85693 4.18914 0 85.1229 4.18914 0 408.096 -282.554 81.4459 58.0221 0.814459 0.580221 1 0.5 0 1
218 1 51.5015 46.2734 0 51.5015 46.2734 0 -442.748 -490.283 261.136 111.747 0.994509 -0.104656 1 0.5 0 1
219 1 54.9537 40.8133 0 54.9537 40.8133 0 111.775 981.445 273.569 -278.717 -0.652105 -0.758128 1 0.5 0 1
220 1 29.992 51.7615 0 29.992 -27.5045 0 -608.311 659.978 -45.8392 -137.904 -0.143489 -0.989652 1 0.5 0 1
221 1 32.4745 39.7476 0 32.4745 119.014 0 300.416 -139.392 45.4798 89.0594 0.454798 0.890594 1 0.5 0 1
222 1 30.4069 41.6991 0 30.4069 -37.5669 0 -764.207 -307.265 100.406 -69.8401 0.772279 0.635283 1 0.5 0 1
223 1 74.7784 34.8481 0 -4.48763 34.8481 0 851.7 -480.831 33.1989 16.1625 -0.801716 0.597705 1 0.5 0 1
224 1 74.7249 59.2585 0 -4.54107 59.2585 0 -84.4636 301.989 43.9417 239.725 0.972061 0.234728 1 0.5 0 1
225 1 23.0903 64.0997 0 102.356 -15.1663 0 209.675 -29.6665 119.1 -23.4285 0.89207 -0.451896 1 0.5 0 1
226 1 24.6107 56.8878 0 24.6107 -22.3782 0 590.176 -202.308 -50.4492 -93.7028 -0.939815 -0.341683 1 0.5 0 1
227 1 4.2504 34.0505 0 83.5164 34.0505 0 432.426 462.574 39.596 -126.831 -0.764891 0.644159 1 0.5 0 1
228 1 38.4484 48.885 0 -40.8176 48.885 0 -353.032 -764.875 -17.2305 -94.8776 -0.381415 -0.924404 1 0.5 0 1
229 1 54.0559 36.9357 0 54.0559 36.9357 0 -162 142.91 -251.558 128.267 0.980373 -0.19715 1 0.5 0 1
230 1 54.466 35.3404 0 54.466 114.606 0 -672.102 -435.726 -120.541 96.0709 -0.419672 0.907676 1 0.5 0 1
231 1 61.1344 10.6773 0 61.1344 89.9433 0 -622.242 -665.722 -97.5296 -22.0903 -0.975296 -0.220903 1 0.5 0 1
232 1 51.9498 30.2976 0 51.9498 -48.9684 0 -71.1766 341.223 194.069 -11.6311 0.930496 -0.366302 1 0.5 0 1
233 1 8.91664 42.6178 0 8.91664 42.6178 0 -417.419 -37.2695 85.0647 8.989 -0.810221 -0.586124 1 0.5 0 1
234 1 19.8703 54.1364 0 19.8703 -25.1296 0 -166.495 -348 -99.5495 54.7343 -0.923164 0.384407 1 0.5 0 1
235 1 21.5531 69.231 0 21.5531 69.231 0 -220.628 363.61 4.99293 57.165 0.293475 0.955967 1 0.5 0 1
236 1 30.8537 69.0065 0 110.12 69.0065 0 -4.21273 -129.088 87.838 -119.194 0.3832 -0.923666 1 0.5 0 1
237 1 58.5134 23.8934 0 58.5134 23.8934 0 -126.324 763.087 -242.677 -81.0862 0.631067 -0.775729 1 0.5 0 1
238 1 65.9554 15.1268 0 65.9554 94.3928 0 389.42 -612.224 -60.3859 -64.6016 0.671887 0.740654 1 0.5 0 1
239 1 5.89106 39.3565 0 85.1571 39.3565 0 494.232 284.44 4.80767 -36.6649 0.543723 0.839265 1 0.5 0 1
240 1 54.0126 13.1191 0 54.0126 13.1191 0 -134.651 5.0457 -84.8973 0.630605 0.830652 -0.556791 1 0.5 0 1
241 1 50.1755 34.4292 0 50.1755 34.4292 0 68.5869 -1338.28 -32.9198 91.9373 -0.105907 -0.994376 1 0.5 0 1
242 1 0.886948 60.4859 0 80.1529 -18.7801 0 322.456 556.484 -6.18384 23.3295 0.672329 -0.740253 1 0.5 0 1
243 1 47.936 14.2571 0 -31.33 93.5231 0 -260.702 -206.417 -104.829 11.5447 -0.999855 -0.0170155 1 0.5 0 1
244 1 42.569 14.5365 0 42.569 93.8025 0 444.541 -241.199 121.347 -19.8001 0.830982 0.556299 1 0.5 0 1
245 1 57.6804 47.2376 0 57.6804 47.2376 0 -658.62 327.582 87.9938 114.575 0.605725 -0.795674 1 0.5 0 1
246 1 51.7011 37.8884 0 51.7011 37.8884 0 -283.569 239.915 277.701 -87.9929 0.76631 -0.64247 1 0.5 0 1
247 1 68.3433 51.2152 0 68.3433 -28.0508 0 1220.44 695.317 -98.5731 -220.623 -0.551322 -0.834293 1 0.5 0 1
248 1 33.9443 44.2306 0 -45.3217 123.497 0 108.348 -457.035 -29.1732 -50.1355 -0.98546 -0.169906 1 0.5 0 1
249 1 76.8566 20.2397 0 76.8566 20.2397 0 -461.447 -322.329 -107.084 -9.4007 0.417498 -0.908678 1 0.5 0 1
250 1 24.8497 78.4592 0 104.116 78.4592 0 666.467 -630.577 42.9055 90.5112 0.599163 0.800627 1 0.5 0 1
251 1 36.5239 0.854738 0 36.5239 159.387 0 -403.118 406.956 -109.836 28.0107 -0.999165 -0.0408666 1 0.5 0 1
252 1 34.6061 68.7379 0 34.6061 68.7379 0 -216.914 191.76 208.139 -55.7758 -0.196822 0.980439 1 0.5 0 1
253 1 21.0955 70.4127 0 21.0955 70.4127 0 -299.712 247.406 50.9506 -80.7555 0.980352 0.197256 1 0.5 0 1
254 1 46.34 34.2252 0 46.34 113.491 0 -404.126 -644.203 22.2202 42.5369 0.565787 0.824552 1 0.5 0 1
255 1 4.91579 31.4504 0 84.1818 110.716 0 279.842 -146.593 -18.9014 -7.34146 -0.951745 0.306889 1 0.5 0 1
256 1 71.0706 39.5698 0 -8.1954 39.5698 0 -773.098 834.89 199.769 24.6063 0.977938 0.208894 1 0.5 0 1
257 1 9.77054 35.5148 0 9.77054 114.781 0 -451.346 -494.487 120.347 95.5522 -0.809495 -0.587127 1 0.5 0 1
258 1 24.3391 34.9473 0 24.3391 -44.3187 0 887.398 -428.354 -80.4902 -57.4849 -0.859432 -0.51125 1 0.5 0 1
259 1 9.68994 58.96 0 88.9559 58.96 0 -407.495 -104.878 52.4143 20.3892 -0.787625 0.616155 1 0.5 0 1
260 1 54.5163 5.54307 0 133.782 5.54307 0 -739.142 298.888 -4.66177 -14.9678 0.980803 -0.195 1 0.5 0 1
261 1 43.9943 11.5521 0 -35.2717 11.5521 0 -447.259 252.853 -96.5775 -25.938 -0.965775 -0.25938 1 0.5 0 1
262 1 57.8261 56.1377 0 137.092 -23.1283 0 -478.628 78.9977 -90.4462 -21.7214 -0.207148 -0.97831 1 0.5 0 1
263 1 33.2015 64.8342 0 -46.0645 -14.4318 0 322.647 -678.202 39.0663 96.5558 0.368555 -0.929606 1 0.5 0 1
264 1 54.993 16.5084 0 134.259 16.5084 0 541.18 -73.5882 55.7946 105.18 0.971693 -0.236246 1 0.5 0 1
265 1 51.6586 26.2815 0 51.6586 105.547 0 795.212 299.85 79.6871 -36.8974 0.985909 0.167283 1 0.5 0 1
266 1 56.9309 48.793 0 56.9309 48.793 0 -138.937 -396.981 -42.5975 203.473 0.944068 -0.329752 1 0.5 0 1
267 1 75.3567 63.194 0 -3.90928 -16.072 0 -132.259 825.698 30.1725 -39.6539 -0.416274 -0.909239 1 0.5 0 1
268 1 66.5284 58.0176 0 66.5284 58.0176 0 1034.58 -752.519 -221.307 -6.24948 0.424292 -0.905525 1 0.5 0 1
269 1 25.2967 35.6105 0 104.563 35.6105 0 -338.232 -406.452 -55.8757 -0.541712 -0.91845 0.395537 1 0.5 0 1
270 1 52.4402 47.698 0 131.706 -31.568 0 -520.971 338.502 148.975 44.6259 0.0998908 -0.994998 1 0.5 0 1
271 1 58.7882 21.9165 0 58.7882 21.9165 0 -477.358 354.468 -164.348 52.8215 0.206503 -0.978446 1 0.5 0 1
272 1 53.1009 35.2414 0 53.1009 35.2414 0 398.695 100.636 -17.5376 -96.9193 -0.973797 0.22742 1 0.5 0 1
273 1 61.1763 46.7179 0 61.1763 46.7179 0 -977.497 330.284 -37.2579 1.04671 0.440324 -0.897839 1 0.5 0 1
274 1 9.93788 57.9699 0 9.93788 -21.2961 0 522.417 61.9244 -54.0617 60.0586 -0.0840525 0.996461 1 0.5 0 1
275 1 5.10148 59.1066 0 84.3675 -20.1594 0 882.836 10.0376 -57.4861 15.4934 -0.553815 -0.83264 1 0.5 0 1
276 1 60.3886 41.7352 0 60.3886 41.7352 0 160.984 159.684 -392.98 14.335 0.806726 -0.590926 1 0.5 0 1
277 1 26.326 13.4311 0 -52.94 13.4311 0 -124.044 888.644 13.6549 165.233 -0.981317 0.192397 1 0.5 0 1
278 1 27.8868 22.9998 0 -51.3792 102.266 0 -82.1758 475.917 -111.363 -82.4093 -0.844298 0.535875 1 0.5 0 1
279 1 51.5503 14.1173 0 130.816 14.1173 0 780.327 -1.77072 16.0751 1.75069 0.259958 -0.96562 1 0.5 0 1
280 1 28.605 32.0233 0 28.605 -47.2427 0 -110.095 -140.983 -68.2313 -52.4622 -0.721913 -0.691984 1 0.5 0 1
281 1 68.691 54.2017 0 68.691 54.2017 0 -81.7268 -158.204 100.492 35.4214 0.97487 0.222774 1 0.5 0 1
282 1 49.695 45.4856 0 49.695 -33.7804 0 288.092 292.644 -14.7512 -196.322 0.663489 -0.748186 1 0.5 0 1
283 1 73.1522 28.6306 0 -6.1138 107.897 0 413.61 -423.657 -81.1645 40.2663 -0.385689 0.922629 1 0.5 0 1
284 1 77.9289 18.8859 0 -1.33706 98.1519 0 -16.9091 314.149 49.7879 -126.329 0.978497 0.206263 1 0.5 0 1
285 1 69.1565 31.4149 0 69.1565 31.4149 0 -503.539 524.715 -71.5383 -16.174 -0.0127667 0.999919 1 0.5 0 1