ITEM: TIMESTEP
490000
ITEM: NUMBER OF ATOMS
4000
ITEM: BOX BOUNDS pp pp pp
0.0000000000000000e+00 7.9266000000000005e+01
0.0000000000000000e+00 7.9266000000000005e+01
-5.0000000000000000e-01 5.0000000000000000e-01
ITEM: ATOMS id type x y z xu yu zu vx vy fx fy mux muy mu radius omegaz mass
1 1 9.23418 66.5207 0 88.5002 66.5207 0 -8.29229 299.806 -16.7772 -18.8699 -0.235536 -0.971866 1 0.5 0 1
2 1 59.8925 19.9889 0 59.8925 19.9889 0 -249.128 -14.073 -82.304 34.205 -0.875149 -0.483854 1 0.5 0 1
3 1 40.4126 34.6408 0 40.4126 -44.6252 0 885.319 420.834 35.2254 17.7678 0.990408 0.138177 1 0.5 0 1
4 1 0.966763 16.8071 0 0.966763 16.8071 0 262.806 -632.036 -97.3988 41.9021 -0.589609 0.807689 1 0.5 0 1
5 1 0.37275 32.4061 0 0.37275 32.4061 0 -230.254 -493.635 -89.2624 10.9639 -0.999929 0.0119277 1 0.5 0 1
6 1 67.6476 30.9774 0 -11.6184 30.9774 0 -16.6135 -196.882 70.4584 -25.8658 0.998964 -0.0454987 1 0.5 0 1
7 1 67.0037 51.669 0 67.0037 51.669 0 -76.3365 548.9 49.9017 -217.674 -0.172619 0.984989 1 0.5 0 1
8 1 13.7202 24.3463 0 13.7202 -54.9197 0 112.82 -1020.11 17.869 -106.814 0.217599 -0.976038 1 0.5 0 1
9 1 66.0588 28.7819 0 66.0588 28.7819 0 788.9 -626.075 5.05037 -135.297 0.807144 0.590355 1 0.5 0 1
10 1 22.0043 55.8946 0 22.0043 55.8946 0 -400.988 -650.996 45.7352 -4.73858 -0.920003 0.391911 1 0.5 0 1
11 1 64.2825 14.0222 0 -94.2495 14.0222 0 -536.924 -221.412 -42.4249 -93.4566 0.537072 0.843537 1 0.5 0 1
12 1 77.3172 23.6104 0 77.3172 102.876 0 -471.469 -501.483 34.3265 19.6069 -0.598989 -0.800757 1 0.5 0 1
13 1 76.7868 66.142 0 76.7868 -13.124 0 -829.316 263.626 29.0259 13.0191 -0.887103 0.461571 1 0.5 0 1
14 1 13.5747 40.7445 0 -144.957 40.7445 0 725.879 -705.427 -58.2425 -45.9515 -0.883749 0.467961 1 0.5 0 1
15 1 8.71213 36.8538 0 8.71213 36.8538 0 224.319 -440.732 83.2537 74.56 -0.949992 -0.312274 1 0.5 0 1
16 1 15.4719 51.348 0 -63.7941 -27.918 0 -347 1347.2 40.2111 -260.314 -0.514844 -0.857284 1 0.5 0 1
17 1 42.2218 39.1839 0 121.488 118.45 0 -642.411 187.224 100.68 9.98996 0.988374 0.152043 1 0.5 0 1
18 1 78.2306 75.6188 0 -1.03541 -3.64717 0 384.58 -66.3966 2.88568 44.1246 0.962011 -0.27301 1 0.5 0 1
19 1 3.54674 44.3827 0 3.54674 44.3827 0 408.072 240.961 169.437 -45.3757 -0.028439 0.999596 1 0.5 0 1
20 1 35.1628 54.1538 0 35.1628 54.1538 0 -51.219 97.865 84.3998 -53.6346 0.843998 -0.536346 1 0.5 0 1
21 1 1.32893 29.0504 0 1.32893 29.0504 0 328.665 -768.577 12.3597 248.647 0.626223 0.779644 1 0.5 0 1
22 1 78.7647 22.2745 0 78.7647 22.2745 0 -40.1081 280.948 58.3249 17.1068 -0.946882 -0.32158 1 0.5 0 1
23 1 41.7947 47.3749 0 121.061 47.3749 0 129.418 -430.142 109.195 33.2535 -0.61173 -0.791067 1 0.5 0 1
24 1 67.1477 58.8375 0 67.1477 -20.4285 0 96.0218 -75.0493 119.063 13.9284 -0.815738 -0.578421 1 0.5 0 1
25 1 46.6569 30.7898 0 -32.6091 -48.4762 0 341.708 92.0971 184.779 15.7148 -0.823338 -0.567552 1 0.5 0 1
26 1 51.8377 67.4053 0 51.8377 -91.1267 0 448.859 721.629 -67.8469 73.4629 -0.678469 0.734629 1 0.5 0 1
27 1 71.8479 20.4521 0 -7.41807 99.7181 0 -672.02 510.781 116.526 29.4699 0.869882 -0.49326 1 0.5 0 1
28 1 64.5054 7.27333 0 -14.7606 86.5393 0 120.296 123.411 -85.9965 51.0353 -0.859965 0.510353 1 0.5 0 1
29 1 73.761 39.7948 0 -5.50496 39.7948 0 860.488 -366.551 -71.5877 -13.6254 -0.855953 -0.517053 1 0.5 0 1
30 1 9.78981 11.1051 0 89.0558 90.3711 0 -336.85 305.707 92.3408 38.3821 0.923408 0.383821 1 0.5 0 1
31 1 72.059 27.6182 0 -7.20698 27.6182 0 268.083 693.034 -35.818 -53.7352 -0.777407 0.628998 1 0.5 0 1
32 1 1.32407 17.7515 0 1.32407 17.7515 0 -481.325 184.566 14.162 119.614 0.526088 -0.85043 1 0.5 0 1
33 1 65.8319 60.2877 0 65.8319 -18.9783 0 124.752 -5.74332 98.238 -58.0009 0.352732 -0.935724 1 0.5 0 1
34 1 8.74816 49.23 0 88.0142 49.23 0 -296.182 76.3736 138.963 -18.7225 -0.527526 0.849539 1 0.5 0 1
35 1 28.8755 44.8634 0 -50.3905 44.8634 0 -291.203 52.5907 -97.0779 23.9975 -0.970779 0.239975 1 0.5 0 1
36 1 60.2283 60.9654 0 60.2283 -18.3006 0 -284.095 -367.576 -54.7153 25.1217 -0.11429 0.993447 1 0.5 0 1
37 1 69.4173 44.1923 0 69.4173 44.1923 0 -173.07 64.2641 -84.4503 -14.3383 -0.482013 0.876164 1 0.5 0 1
38 1 6.77496 6.43542 0 165.307 85.7014 0 -184.743 -204.174 47.972 -87.7422 0.47972 -0.877422 1 0.5 0 1
39 1 7.42442 24.5195 0 86.6904 -54.7465 0 -273.82 -268.794 130.603 2.19419 0.99553 0.0944409 1 0.5 0 1
40 1 57.5514 17.1561 0 -21.7146 96.4221 0 629.635 466.987 115.72 -176.284 0.740609 0.671936 1 0.5 0 1
41 1 69.4261 54.0783 0 69.4261 54.0783 0 -122.816 171.862 9.27491 -218.754 0.981023 0.193893 1 0.5 0 1
42 1 75.4516 58.8473 0 -3.81436 58.8473 0 237.708 771.95 -19.6974 -74.4119 0.757617 -0.6527 1 0.5 0 1
43 1 77.0535 16.1578 0 -81.4785 95.4238 0 -133.884 247.259 167.919 58.5237 -0.937816 -0.347133 1 0.5 0 1
44 1 63.12 21.7604 0 63.12 101.026 0 -1008.88 272.768 54.9275 -23.7963 0.540359 0.841434 1 0.5 0 1
45 1 23.3821 58.2018 0 23.3821 -100.33 0 -155.037 357.239 -6.60375 -13.2925 -0.674377 -0.738387 1 0.5 0 1
46 1 4.81771 45.5999 0 4.81771 45.5999 0 235.3 -550.04 -285.309 -98.5236 -0.888908 -0.458086 1 0.5 0 1
47 1 59.35 63.5635 0 59.35 -15.7025 0 -412.326 -282.461 -85.4419 -18.9425 -0.82312 0.567867 1 0.5 0 1
48 1 14.8526 47.3792 0 14.8526 47.3792 0 -35.6558 -800.819 -52.4963 7.12791 0.911091 0.412205 1 0.5 0 1
49 1 36.3219 66.0824 0 36.3219 66.0824 0 -556.823 96.4267 -21.2945 97.7064 -0.212945 0.977064 1 0.5 0 1
50 1 63.2718 12.1847 0 -15.9942 12.1847 0 327.715 -760.411 79.2032 -70.7891 0.991319 -0.131479 1 0.5 0 1
51 1 44.791 60.2733 0 -113.741 -18.9927 0 -500.127 -2.17922 -34.895 -50.361 0.650518 -0.759491 1 0.5 0 1
52 1 1.63718 33.6523 0 80.9032 33.6523 0 -456.43 -575.751 -23.2609 17.9449 0.998313 -0.0580626 1 0.5 0 1
53 1 15.0011 57.631 0 15.0011 136.897 0 186.984 27.4239 -27.3508 52.1352 0.324385 -0.945925 1 0.5 0 1
54 1 51.7894 32.0621 0 51.7894 32.0621 0 -520.678 -214.397 -52.608 -33.8336 -0.0379891 0.999278 1 0.5 0 1
55 1 15.6255 41.2319 0 94.8915 120.498 0 818.252 416.359 8.13355 80.833 -0.146366 -0.989231 1 0.5 0 1
56 1 38.8686 43.7289 0 38.8686 43.7289 0 -287.726 -99.151 6.37611 -61.2427 0.639414 0.768862 1 0.5 0 1
57 1 74.5919 76.2007 0 -4.67414 76.2007 0 159.204 -155.399 100.586 -118.322 -0.717335 -0.696729 1 0.5 0 1
58 1 65.3408 29.4531 0 -13.9252 29.4531 0 -1282.01 511.483 177.914 -65.5418 -0.883697 -0.468058 1 0.5 0 1
59 1 51.3563 36.3665 0 51.3563 36.3665 0 -178.01 263.587 -18.3645 6.33022 0.973696 -0.227852 1 0.5 0 1
60 1 55.8795 43.0225 0 55.8795 43.0225 0 274.227 -879.769 40.0642 38.1933 -0.177876 -0.984053 1 0.5 0 1
61 1 58.5177 46.5017 0 58.5177 46.5017 0 -390.581 -95.0708 168.944 67.4435 -0.79224 -0.61021 1 0.5 0 1
62 1 57.9585 1.28888 0 137.225 1.28888 0 -781.3 312.339 59.5111 -59.4137 0.622647 -0.782503 1 0.5 0 1
63 1 27.3375 65.2235 0 -51.9285 -14.0425 0 351.881 230.173 99.9967 0.808804 0.999967 0.00808804 1 0.5 0 1
64 1 15.7789 31.5086 0 95.0449 110.775 0 -269.305 207.357 -23.8782 32.6598 -0.934948 0.354786 1 0.5 0 1
65 1 42.9967 33.5528 0 201.529 112.819 0 -719.588 110.228 -63.5204 95.621 0.995486 0.0949058 1 0.5 0 1
66 1 15.0709 45.7783 0 94.3369 125.044 0 -1008.17 -15.8971 -13.08 101.04 0.312831 -0.949809 1 0.5 0 1
67 1 53.7367 45.1857 0 53.7367 45.1857 0 -160.74 -717.536 37.6365 -7.8215 0.26014 -0.965571 1 0.5 0 1
68 1 12.855 41.4525 0 12.855 41.4525 0 -609.851 -477.527 30.61 25.0843 0.992545 -0.121879 1 0.5 0 1
69 1 55.1806 22.1247 0 55.1806 22.1247 0 -425.133 199.178 196.918 115.543 0.336819 0.941569 1 0.5 0 1
70 1 47.8303 39.8544 0 47.8303 119.12 0 147.274 256.767 108.769 -105.526 0.69708 -0.716993 1 0.5 0 1
71 1 59.7593 16.2007 0 139.025 16.2007 0 -78.5293 -17.0462 -47.9117 132.347 0.990494 0.137557 1 0.5 0 1
72 1 7.52811 60.5775 0 7.52811 60.5775 0 338.761 734.212 116.43 -31.9304 0.212086 -0.977251 1 0.5 0 1
73 1 3.13403 14.3939 0 3.13403 14.3939 0 -536.723 922.824 45.0971 136.911 0.357022 -0.934096 1 0.5 0 1
74 1 56.6159 17.5161 0 56.6159 96.7821 0 -23.6859 -139.044 29.5252 -137.267 0.0931846 -0.995649 1 0.5 0 1
75 1 75.4757 39.3315 0 -3.79026 39.3315 0 -76.243 -261.644 8.05692 34.82 0.101441 -0.994842 1 0.5 0 1
76 1 20.3692 41.2141 0 -58.8968 41.2141 0 244.981 527.492 -14.0224 50.7034 -0.462998 0.886359 1 0.5 0 1
77 1 76.9917 35.3059 0 -2.27428 35.3059 0 1296.17 -377.77 -112.199 4.53811 0.823666 -0.567075 1 0.5 0 1
78 1 60.1743 71.353 0 60.1743 71.353 0 -531.653 -380.306 12.7261 28.3026 -0.574433 -0.818552 1 0.5 0 1
79 1 44.9644 56.5546 0 -34.3016 56.5546 0 399.775 -219.317 -159.732 -75.5669 0.998009 0.0630715 1 0.5 0 1
80 1 77.3937 27.2601 0 -1.87228 -52.0059 0 -88.2397 -250.812 -153.122 -30.9461 0.172321 -0.985041 1 0.5 0 1
81 1 47.129 36.9908 0 126.395 36.9908 0 303.358 -626.253 -174.752 84.0715 0.984348 0.176233 1 0.5 0 1
82 1 0.794574 39.7515 0 0.794574 39.7515 0 57.7797 -431.365 -131.248 28.942 0.959804 0.28067 1 0.5 0 1
83 1 43.1233 42.1797 0 122.389 121.446 0 -243.12 3.25303 -69.2742 109.868 -0.577842 0.816149 1 0.5 0 1
84 1 76.9639 45.2975 0 -2.30206 45.2975 0 14.2168 -750.385 185.664 31.432 0.401643 0.915797 1 0.5 0 1
85 1 57.1996 70.3276 0 -22.0664 -8.93838 0 -98.1775 56.9774 35.5935 72.478 0.671645 0.740873 1 0.5 0 1
86 1 9.33929 42.4574 0 9.33929 42.4574 0 -59.8236 -737.933 -152.046 14.7771 -0.949503 -0.313758 1 0.5 0 1
87 1 7.94804 43.9929 0 7.94804 43.9929 0 -491.675 -40.2235 -31.1467 28.7121 0.710328 0.703871 1 0.5 0 1
88 1 20.3781 42.3081 0 20.3781 42.3081 0 -387.42 -420.773 -2.69566 19.256 -0.221902 0.975069 1 0.5 0 1
89 1 21.9702 53.6449 0 21.9702 -25.6211 0 -577.696 -343.532 40.8562 39.865 -0.850186 -0.526482 1 0.5 0 1
90 1 4.00747 39.0248 0 4.00747 39.0248 0 24.8632 -454.525 147.999 -44.3502 -0.45195 0.892043 1 0.5 0 1
91 1 28.6573 66.8784 0 28.6573 -12.3876 0 -448.459 -105.213 46.6785 88.7428 0.584986 0.811043 1 0.5 0 1
92 1 7.32616 57.8751 0 7.32616 57.8751 0 -632.826 419.823 99.3006 -91.5948 0.974959 0.222384 1 0.5 0 1
93 1 2.09536 48.5523 0 2.09536 48.5523 0 -274.381 101.708 105.731 -217.032 -0.525155 0.851006 1 0.5 0 1
94 1 69.6736 37.7855 0 69.6736 37.7855 0 -350.68 -177.305 117.215 7.73293 0.827101 -0.562053 1 0.5 0 1
95 1 66.7583 50.6895 0 66.7583 50.6895 0 36.7848 -248.832 -169.61 163.306 0.979457 0.201652 1 0.5 0 1
96 1 53.5276 44.1953 0 53.5276 44.1953 0 404.025 412.163 -124.031 5.46319 0.988719 -0.149785 1 0.5 0 1
97 1 41.0297 65.9483 0 41.0297 -92.5837 0 -686.246 -685.984 -98.9095 -14.728 -0.989095 -0.14728 1 0.5 0 1
98 1 17.6992 53.8125 0 17.6992 53.8125 0 346.389 783.319 -34.5512 -199.269 -0.555559 0.831477 1 0.5 0 1
99 1 44.7981 41.7903 0 44.7981 -37.4757 0 -444.675 -84.9642 155.863 73.2311 0.627329 0.778755 1 0.5 0 1
100 1 72.3601 44.8555 0 72.3601 44.8555 0 693.679 -281.194 0.271946 138.346 0.424464 -0.905445 1 0.5 0 1
101 1 49.8837 50.7287 0 49.8837 -28.5373 0 -962.273 512.988 -117.967 -42.1049 0.971113 0.238619 1 0.5 0 1
102 1 78.2996 43.8229 0 -0.966438 43.8229 0 -231.909 184.75 -161.962 185.188 -0.999564 -0.0295295 1 0.5 0 1
103 1 30.9062 42.5756 0 -127.626 121.842 0 -154.579 -203.817 83.7511 -54.6421 0.837511 -0.546421 1 0.5 0 1
104 1 53.0319 45.915 0 53.0319 125.181 0 1076.16 -472.164 -193.467 54.1955 0.799062 0.601249 1 0.5 0 1
105 1 40.6576 35.6673 0 40.6576 35.6673 0 52.3027 286.598 -95.7599 -52.3185 0.963005 0.269485 1 0.5 0 1
106 1 17.2776 37.0493 0 17.2776 -42.2167 0 581.814 249.334 -87.0206 -18.416 -0.996407 -0.0846997 1 0.5 0 1
107 1 61.0951 38.9448 0 61.0951 38.9448 0 -248.786 -92.6386 -65.545 -28.9314 0.130518 -0.991446 1 0.5 0 1
108 1 78.5416 37.4639 0 -0.724367 116.73 0 363.061 -507.655 -44.204 107.72 0.668099 -0.744073 1 0.5 0 1
109 1 39.4428 42.8069 0 -39.8232 122.073 0 -600.209 -195.614 -19.0054 139.178 0.910457 -0.413603 1 0.5 0 1
110 1 49.4141 33.1473 0 49.4141 33.1473 0 232.381 95.9001 -118.785 127.004 0.136374 0.990657 1 0.5 0 1
111 1 72.0723 15.107 0 72.0723 94.373 0 689.779 -724.124 -138.253 135.983 -0.45202 0.892008 1 0.5 0 1
112 1 11.8218 51.1833 0 11.8218 51.1833 0 70.7822 675.772 -20.7456 26.6404 -0.325718 0.945467 1 0.5 0 1
113 1 7.77283 12.7703 0 -71.4932 92.0363 0 -488.466 19.8672 12.0391 -59.6527 -0.201356 -0.979518 1 0.5 0 1
114 1 54.2681 57.4261 0 54.2681 57.4261 0 -181.308 -302.692 -22.6722 164.978 0.99643 0.084421 1 0.5 0 1
115 1 42.8155 47.7336 0 42.8155 -31.5324 0 209.361 -190.763 -74.8057 21.8506 0.191089 0.981573 1 0.5 0 1
116 1 60.8318 69.76 0 60.8318 -88.772 0 191.932 217.063 -92.2097 -93.2233 0.78526 -0.619167 1 0.5 0 1
117 1 67.1637 69.7475 0 67.1637 -9.5185 0 454.024 308.374 -93.8812 2.88045 0.244293 0.969701 1 0.5 0 1
118 1 54.2114 43.4514 0 54.2114 43.4514 0 -1333.74 457.273 203.3 164.284 0.352605 -0.935772 1 0.5 0 1
119 1 49.5397 63.7018 0 208.072 -15.5642 0 -227.255 -815.037 29.8133 58.6316 0.9981 -0.0616086 1 0.5 0 1
120 1 45.3414 53.9331 0 124.607 -25.3329 0 184.356 -577.789 -154.823 29.3775 -0.715264 0.698854 1 0.5 0 1
121 1 61.3303 71.6929 0 -97.2017 -7.57305 0 481.517 -526.319 188.392 -182.837 0.708137 -0.706075 1 0.5 0 1
122 1 40.5392 0.376822 0 40.5392 79.6428 0 132.397 1104.74 24.2817 -97.0072 0.242817 -0.970072 1 0.5 0 1
123 1 72.5275 32.2447 0 -6.73853 32.2447 0 -537.163 86.3895 69.6151 -57.8155 0.818093 0.575086 1 0.5 0 1
124 1 8.50698 13.6657 0 -70.759 -65.6003 0 -338.978 -908.989 -90.1313 -43.3169 -0.901313 -0.433169 1 0.5 0 1
125 1 63.6771 29.9261 0 63.6771 29.9261 0 -913.718 -552.199 206.1 -184.916 -0.971413 0.237396 1 0.5 0 1
126 1 7.76248 36.5796 0 87.0285 115.846 0 -792.125 1394.49 -87.9248 -5.36472 0.835372 0.549686 1 0.5 0 1
127 1 56.393 32.4204 0 56.393 111.686 0 -1079.97 -467.645 20.0671 18.8465 0.852671 0.522448 1 0.5 0 1
128 1 0.529322 26.1559 0 -78.7367 26.1559 0 -387.306 389.833 178.921 -56.2402 -0.421336 -0.906905 1 0.5 0 1
129 1 68.8396 58.3845 0 68.8396 -20.8815 0 -38.2041 -7.85538 -91.2584 107.779 -0.0780307 0.996951 1 0.5 0 1
130 1 74.2304 55.1634 0 74.2304 -24.1026 0 -203.394 -383.267 -115.97 -69.6363 -0.994075 -0.108698 1 0.5 0 1
131 1 1.98809 67.7285 0 1.98809 67.7285 0 392.273 199.188 209.361 7.7609 -0.152658 -0.988279 1 0.5 0 1
132 1 58.6954 33.8914 0 -20.5706 113.157 0 194.156 -365.729 -140.153 160.184 0.987553 -0.15729 1 0.5 0 1
133 1 14.8527 52.9824 0 14.8527 132.248 0 -13.3465 -45.9893 172.514 35.7668 -0.536705 -0.84377 1 0.5 0 1
134 1 10.5424 40.012 0 10.5424 40.012 0 -355.211 -532.144 -209.046 5.01842 -0.395518 -0.918458 1 0.5 0 1
135 1 24.8446 31.4838 0 24.8446 190.016 0 652.575 419.217 -34.8232 93.7408 -0.348232 0.937408 1 0.5 0 1
136 1 40.2844 61.8461 0 119.55 220.378 0 -397.179 485.768 22.219 97.5003 0.22219 0.975003 1 0.5 0 1
137 1 39.7611 46.7133 0 119.027 46.7133 0 -438.381 497.504 77.8693 -81.1636 0.524029 -0.8517 1 0.5 0 1
138 1 49.441 56.2806 0 -29.825 -22.9854 0 -762.326 -459.137 -7.59263 43.7358 0.356608 0.934254 1 0.5 0 1
139 1 44.8895 45.504 0 44.8895 -33.762 0 129.443 -122.662 1.64249 132.36 -0.77547 -0.631385 1 0.5 0 1
140 1 75.3576 11.1529 0 -3.90838 11.1529 0 19.2953 -809.689 -65.0117 -60.3147 -0.954014 0.299761 1 0.5 0 1
141 1 12.7765 59.7141 0 12.7765 59.7141 0 -474.449 415.011 -8.94194 -72.5212 0.992058 -0.125783 1 0.5 0 1
142 1 18.9198 44.4353 0 -60.3462 123.701 0 -775.571 364.84 96.3911 -4.47255 -0.986749 -0.162251 1 0.5 0 1
143 1 8.98435 37.8389 0 8.98435 117.105 0 215.6 494.786 36.2391 -75.933 -0.774811 0.632193 1 0.5 0 1
144 1 60.0226 75.0972 0 60.0226 -4.16878 0 88.6508 129.223 76.4972 -14.5828 0.785216 -0.619222 1 0.5 0 1
145 1 19.0473 64.7606 0 98.3133 64.7606 0 -70.548 -498.002 -35.4416 -32.7466 0.231648 -0.9728 1 0.5 0 1
146 1 62.9344 64.9231 0 62.9344 -14.3429 0 -120.465 -384.852 -3.35476 -124.369 0.951878 -0.306478 1 0.5 0 1
147 1 1.8789 65.1275 0 81.1449 -14.1385 0 217.261 -123.825 -50.5865 -176.629 -0.889821 0.456309 1 0.5 0 1
148 1 21.4333 10.0789 0 100.699 89.3449 0 182.606 843.695 -78.0933 62.4615 -0.780933 0.624615 1 0.5 0 1
149 1 69.8971 32.4887 0 69.8971 111.755 0 90.1901 702.195 50.522 -180.735 -0.17465 0.984631 1 0.5 0 1
150 1 66.0694 37.7303 0 -13.1966 37.7303 0 -369.847 20.3002 282.21 9.39592 0.730296 0.683131 1 0.5 0 1
151 1 5.84465 56.7338 0 85.1107 -22.5322 0 -144.509 358.869 60.8537 -47.5887 -0.611817 -0.790999 1 0.5 0 1
152 1 66.5289 67.7153 0 66.5289 67.7153 0 120.278 15.2997 44.7825 8.15445 0.111036 -0.993816 1 0.5 0 1
153 1 77.1246 58.2742 0 77.1246 58.2742 0 -589.087 269.703 -9.92754 -115.16 0.877566 0.479456 1 0.5 0 1
154 1 5.31016 53.0189 0 5.31016 53.0189 0 130.518 412.178 43.0472 -52.8978 -0.753548 0.657393 1 0.5 0 1
155 1 70.8058 72.4765 0 -87.7262 -6.78948 0 -628.526 -137.784 93.3442 50.0645 0.449533 0.893264 1 0.5 0 1
156 1 74.3139 48.9823 0 74.3139 48.9823 0 -148.063 410.169 -122.203 139.74 -0.819862 0.572561 1 0.5 0 1
157 1 3.53916 30.6065 0 3.53916 30.6065 0 -684.233 -68.1664 178.316 276.579 0.871509 -0.49038 1 0.5 0 1
158 1 66.7664 40.68 0 -12.4996 40.68 0 -342.894 117.175 4.86768 116.577 0.110895 0.993832 1 0.5 0 1
159 1 4.17442 17.3403 0 4.17442 96.6063 0 32.2579 -310.23 65.8245 74.0943 -0.846437 -0.53249 1 0.5 0 1
160 1 63.9545 11.2182 0 63.9545 11.2182 0 -327.366 -594.492 94.2286 -14.52 0.989705 -0.14312 1 0.5 0 1
161 1 0.238476 12.0953 0 0.238476 -67.1707 0 -525.868 358.756 33.7016 -57.511 0.135604 0.990763 1 0.5 0 1
162 1 8.78571 54.3743 0 8.78571 54.3743 0 13.0698 -12.4827 -18.2811 -100.388 -0.466156 -0.884703 1 0.5 0 1
163 1 63.3882 51.5304 0 63.3882 51.5304 0 -155.489 -170.531 -65.952 -95.7895 0.907857 -0.419279 1 0.5 0 1
164 1 60.2381 65.3225 0 60.2381 -13.9435 0 -145.983 287.566 28.3443 65.1365 0.999717 0.0237825 1 0.5 0 1
165 1 54.8992 18.4977 0 54.8992 97.7637 0 472.897 -111.396 37.9232 94.6708 0.814406 -0.580296 1 0.5 0 1
166 1 11.3852 45.5291 0 11.3852 45.5291 0 -452.638 296.257 50.975 -45.5026 0.834764 0.550607 1 0.5 0 1
167 1 63.0333 30.6167 0 63.0333 30.6167 0 332.486 -218.687 -166.503 160.973 -0.306163 -0.951979 1 0.5 0 1
168 1 18.7658 65.8111 0 -60.5002 65.8111 0 48.8234 51.7577 110.344 22.1449 0.936637 0.3503 1 0.5 0 1
169 1 24.7682 53.6956 0 -54.4978 132.962 0 483.055 -649.281 -5.00987 14.1599 0.424254 -0.905543 1 0.5 0 1
170 1 47.5435 18.6498 0 126.81 177.182 0 8.59445 238.204 -36.0885 93.261 -0.360885 0.93261 1 0.5 0 1
171 1 63.8022 70.6481 0 143.068 -8.61793 0 -136.091 153.882 0.300321 89.6444 0.578641 0.815582 1 0.5 0 1
172 1 11.1014 60.2801 0 11.1014 -18.9859 0 -686.025 -34.5202 89.6185 -140.07 0.985124 -0.171844 1 0.5 0 1
173 1 54.7734 19.9882 0 54.7734 -59.2778 0 107.909 -539.425 -44.4077 26.118 0.762064 0.647501 1 0.5 0 1
174 1 12.4566 54.1045 0 12.4566 54.1045 0 -197.564 -141.793 65.2797 90.3754 0.328007 0.944675 1 0.5 0 1
175 1 68.6011 6.11743 0 -10.6649 6.11743 0 -286.415 -506.81 44.516 89.5451 0.44516 0.895451 1 0.5 0 1
176 1 12.0408 52.1475 0 12.0408 52.1475 0 1360.32 -410.166 -178.584 62.9953 0.946228 -0.323501 1 0.5 0 1
177 1 14.3721 71.3839 0 14.3721 71.3839 0 520.935 364.649 -9.83135 -136.753 0.964723 -0.263267 1 0.5 0 1
178 1 55.7752 30.4816 0 -23.4908 109.748 0 -71.1238 -577 126.52 -43.2707 -0.571998 -0.820255 1 0.5 0 1
179 1 7.72258 62.6393 0 7.72258 -16.6267 0 -149.316 -60.7658 34.2257 -4.81259 0.152823 0.988254 1 0.5 0 1
180 1 73.5415 42.4457 0 73.5415 42.4457 0 611.744 764.171 -116.098 -101.856 -0.0134774 -0.999909 1 0.5 0 1
181 1 31.0175 4.85005 0 110.284 4.85005 0 -410.183 -178.533 44.8882 -5.26574 0.92759 -0.373599 1 0.5 0 1
182 1 5.06172 67.4353 0 -74.2043 67.4353 0 44.6141 496.823 74.8952 -103.52 0.553422 -0.832901 1 0.5 0 1
183 1 58.8022 60.0823 0 58.8022 -19.1837 0 -462.055 -252.639 113.194 63.1549 -0.889128 -0.457659 1 0.5 0 1
184 1 63.2555 44.2395 0 63.2555 44.2395 0 -376.77 692.028 -60.482 -276.165 0.152397 -0.988319 1 0.5 0 1
185 1 58.2438 16.3181 0 -21.0222 16.3181 0 592.918 -274.991 44.1892 209.239 -0.0537101 0.998557 1 0.5 0 1
186 1 18.1906 45.1689 0 -61.0754 124.435 0 692.848 -383.207 -163.055 10.3461 -0.922576 0.385815 1 0.5 0 1
187 1 54.9611 36.4728 0 -24.3049 115.739 0 -524.872 258.775 -94.7052 9.96184 0.247236 0.968955 1 0.5 0 1
188 1 63.3293 16.3563 0 142.595 95.6223 0 -124.584 175.346 -72.9468 -4.7357 0.708777 0.705432 1 0.5 0 1
189 1 33.9779 29.7263 0 33.9779 108.992 0 995.702 -601.979 93.6938 -34.9496 0.936938 -0.349496 1 0.5 0 1
190 1 23.8054 53.3714 0 -55.4606 53.3714 0 -467.157 -38.2198 0.463455 59.2393 0.929011 -0.370051 1 0.5 0 1
191 1 16.5077 70.6412 0 175.04 -8.62484 0 728.167 120.42 73.4719 -85.5221 0.437448 -0.899244 1 0.5 0 1
192 1 58.4277 39.18 0 58.4277 39.18 0 138.533 1047.47 -50.6667 -36.8616 -0.993222 -0.116236 1 0.5 0 1
193 1 75.5613 14.0274 0 -3.70475 93.2934 0 205.733 284.998 -93.6493 -133.07 0.568788 0.822484 1 0.5 0 1
194 1 13.8385 79.2558 0 13.8385 -79.2762 0 729.035 166.797 50.6088 -86.2482 0.506088 -0.862482 1 0.5 0 1
195 1 52.7856 32.3155 0 52.7856 32.3155 0 -694.064 -246.141 -21.1794 275.148 0.999997 0.00230599 1 0.5 0 1
196 1 58.482 42.8532 0 58.482 42.8532 0 1040.46 -35.116 -116.514 -60.889 0.180583 0.98356 1 0.5 0 1
197 1 72.6778 61.8641 0 -6.58817 61.8641 0 -195.793 481.577 -49.0912 -24.5638 0.970593 -0.240726 1 0.5 0 1
198 1 73.6021 46.0738 0 73.6021 46.0738 0 143.269 145.336 -121.74 287.772 -0.16636 0.986065 1 0.5 0 1
199 1 67.276 73.4596 0 -11.99 -5.8064 0 -996.48 546.513 24.5362 -44.8601 -0.480057 -0.877237 1 0.5 0 1
200 1 0.289897 17.5905 0 79.5559 96.8565 0 -1007.89 509.489 85.6738 26.1093 0.34201 0.939696 1 0.5 0 1
201 1 69.2859 11.5774 0 -9.98009 90.8434 0 -100.954 -308.483 15.1911 -19.4969 0.00740415 0.999973 1 0.5 0 1
202 1 56.8271 62.499 0 -22.4389 -16.767 0 17.4292 142.23 -48.1849 -128.66 0.934788 0.355206 1 0.5 0 1
203 1 16.8315 42.6073 0 -62.4345 121.873 0 840.184 540.475 -95.2549 -100.821 0.348359 -0.937361 1 0.5 0 1
204 1 66.4522 64.8973 0 66.4522 -14.3687 0 -346.003 -358.302 -57.0409 -114.232 0.539741 -0.841831 1 0.5 0 1
205 1 46.4101 26.1356 0 46.4101 105.402 0 115.679 -259.013 35.9186 43.3028 0.266433 0.963854 1 0.5 0 1
206 1 7.28157 77.7714 0 7.28157 -1.49464 0 -235.91 1010.55 10.9321 74.8342 0.00127916 0.999999 1 0.5 0 1
207 1 62.3089 65.6412 0 62.3089 65.6412 0 487.618 -487.162 -13.8128 152.402 0.948869 0.315669 1 0.5 0 1
208 1 8.03909 33.9388 0 8.03909 33.9388 0 -231.989 -463.232 25.3594 -70.4045 0.441638 0.897193 1 0.5 0 1
209 1 52.5734 28.6731 0 52.5734 107.939 0 265.996 68.8929 -98.1115 117.276 0.921975 -0.387249 1 0.5 0 1
210 1 67.7242 63.4627 0 -11.5418 63.4627 0 -155.203 200.908 176.823 -155.272 0.598921 0.800808 1 0.5 0 1
211 1 60.6361 44.3376 0 60.6361 44.3376 0 -205.104 -72.2935 70.704 -19.1969 0.547127 -0.837049 1 0.5 0 1
212 1 21.6132 49.3809 0 180.145 49.3809 0 419.199 -848.661 -46.8706 -49.9131 0.862645 0.50581 1 0.5 0 1
213 1 71.602 67.0358 0 71.602 67.0358 0 453.421 -184.815 189.949 -19.7311 0.686003 -0.727598 1 0.5 0 1
214 1 43.9788 25.4306 0 43.9788 25.4306 0 -170.197 -195.522 40.4698 -75.709 0.5396 -0.841921 1 0.5 0 1
215 1 55.5568 64.2121 0 55.5568 -15.0539 0 1343.53 -310.737 -223.695 44.746 -0.68173 0.731604 1 0.5 0 1
216 1 17.9944 48.8349 0 17.9944 128.101 0 766.594 -472.144 38.3641 12.1438 0.861337 0.508034 1 0.5 0 1
217 1 58.1466 74.1399 0 216.679 74.1399 0 -708.555 -260.564 -5.57069 40.0055 0.981163 -0.193179 1 0.5 0 1
218 1 46.7655 52.5703 0 46.7655 52.5703 0 -308.611 -149.817 -47.9519 93.739 -0.977517 -0.210855 1 0.5 0 1
219 1 53.2459 46.9177 0 53.2459 46.9177 0 -318.741 -228.233 -106.98 -13.7789 -0.8375 -0.546437 1 0.5 0 1
220 1 66.1856 69.4675 0 66.1856 -89.0645 0 -401.85 -499.249 -19.7609 -1.62793 0.0658117 -0.997832 1 0.5 0 1
221 1 40.0757 56.6306 0 -39.1903 135.897 0 64.4372 444.752 -48.0726 -61.0209 -0.693112 -0.72083 1 0.5 0 1
222 1 43.0926 30.7408 0 43.0926 30.7408 0 211.26 -427.485 -28.178 -25.3698 0.748069 -0.663621 1 0.5 0 1
223 1 71.5754 38.3081 0 -7.69061 38.3081 0 -334.188 547.949 55.0643 -197.17 0.131542 -0.991311 1 0.5 0 1
224 1 77.4149 59.1893 0 -1.85113 59.1893 0 491.108 565.859 132.038 97.4569 -0.37527 -0.926916 1 0.5 0 1
225 1 5.51193 12.7112 0 84.7779 -66.5548 0 595.041 54.3387 -36.3543 -64.8414 -0.524856 -0.851191 1 0.5 0 1
226 1 15.3804 18.7412 0 -63.8856 -60.5248 0 -257.269 -244.56 -66.3274 -74.8376 -0.663274 -0.748376 1 0.5 0 1
227 1 1.20927 38.0222 0 80.4753 38.0222 0 587.56 -547.498 -141.969 181.863 -0.0222316 -0.999753 1 0.5 0 1
228 1 18.0918 63.3365 0 -61.1742 -15.9295 0 -392.354 -25.3845 -130.862 -47.2002 -0.444532 -0.895763 1 0.5 0 1
229 1 51.3411 42.7123 0 51.3411 42.7123 0 -83.9603 -118.6 -133.399 -133.186 -0.311757 -0.950162 1 0.5 0 1
230 1 51.729 41.0426 0 51.729 120.309 0 -216.251 -394.252 94.4018 -232.94 -0.259488 0.965746 1 0.5 0 1
231 1 3.03859 25.1215 0 3.03859 104.388 0 -155.612 -532.581 179.928 -2.98785 0.189085 0.981961 1 0.5 0 1
232 1 47.1593 29.1166 0 47.1593 -50.1494 0 826.428 963.889 -41.6669 105.972 0.644866 0.764296 1 0.5 0 1
233 1 10.0147 46.9516 0 10.0147 46.9516 0 895.337 104.475 -33.6202 -279.444 0.727966 -0.685613 1 0.5 0 1
234 1 60.9959 7.80826 0 60.9959 7.80826 0 -606.002 220.291 -60.2167 -79.837 -0.602167 -0.79837 1 0.5 0 1
235 1 30.2246 72.8696 0 30.2246 152.136 0 75.3393 -297.534 -6.48265 99.7897 -0.0648265 0.997897 1 0.5 0 1
236 1 6.01441 8.67771 0 164.546 8.67771 0 -455.447 495.881 71.1455 6.96742 0.717435 0.696625 1 0.5 0 1
237 1 75.0641 72.9803 0 75.0641 -6.28565 0 21.6993 -503.317 142.597 33.4195 0.966091 -0.258202 1 0.5 0 1
238 1 67.0222 22.7886 0 67.0222 102.055 0 757.129 2.5896 -12.1456 112.741 0.585006 0.811029 1 0.5 0 1
239 1 2.58381 44.0774 0 81.8498 44.0774 0 296.716 -296.082 6.6986 -147.133 -0.360036 -0.932938 1 0.5 0 1
240 1 70.2317 18.2431 0 70.2317 18.2431 0 148.221 112.825 37.1858 28.4356 0.986088 -0.166225 1 0.5 0 1
241 1 47.5966 38.8704 0 47.5966 38.8704 0 -174.017 -168.586 16.1224 177.373 0.939286 -0.343136 1 0.5 0 1
242 1 10.2648 66.6762 0 89.5308 -12.5898 0 38.6014 374.627 115.537 -185.744 0.880651 0.473765 1 0.5 0 1
243 1 27.5819 71.4091 0 -130.95 71.4091 0 -456.83 -296.07 -87.3252 48.7269 -0.873252 0.487269 1 0.5 0 1
244 1 58.8808 25.9751 0 58.8808 105.241 0 209.919 225.269 130.199 143.808 -0.632435 -0.774614 1 0.5 0 1
245 1 56.7251 53.4179 0 56.7251 53.4179 0 66.07 -148.486 -30.999 -4.64488 -0.768245 -0.640156 1 0.5 0 1
246 1 48.9041 43.8647 0 48.9041 43.8647 0 -696.139 311.845 85.7269 -99.0062 0.0969018 -0.995294 1 0.5 0 1
247 1 67.986 55.509 0 67.986 -23.757 0 200.178 -851.162 87.9307 -115.403 -0.334711 -0.942321 1 0.5 0 1
248 1 2.42616 73.7517 0 2.42616 -5.5143 0 -203.922 329.312 -7.56614 -28.0286 0.374576 -0.927196 1 0.5 0 1
249 1 41.5278 46.412 0 120.794 -32.854 0 -442.747 -23.3247 19.3484 -67.6576 -0.0341267 0.999418 1 0.5 0 1
250 1 59.7812 69.3708 0 218.313 69.3708 0 236.843 596.189 41.5152 -162.78 -0.804197 -0.594363 1 0.5 0 1
251 1 61.6915 16.8108 0 61.6915 175.343 0 408.476 114.836 -19.2472 65.7552 0.938933 0.3441 1 0.5 0 1
252 1 58.0777 23.0919 0 58.0777 102.358 0 266.292 796.912 -100.545 110.306 -0.395468 -0.91848 1 0.5 0 1
253 1 17.495 52.516 0 17.495 52.516 0 -398.147 -134.952 160.208 29.9374 -0.343891 -0.93901 1 0.5 0 1
254 1 46.829 36.0815 0 46.829 115.348 0 525.04 138.001 35.8063 -363.207 0.986192 -0.165609 1 0.5 0 1
255 1 0.324428 35.0761 0 79.5904 114.342 0 -316.955 -428.863 -21.4979 73.0784 0.55996 0.828519 1 0.5 0 1
256 1 68.4446 43.9359 0 -10.8214 43.9359 0 -526.134 38.1663 176.446 43.1929 -0.0407315 0.99917 1 0.5 0 1
257 1 6.17862 40.6818 0 6.17862 119.948 0 -337.283 -127.036 56.0385 -221.242 -0.963383 0.268129 1 0.5 0 1
258 1 5.76671 28.6787 0 5.76671 -50.5873 0 -269.409 -657.367 229.507 9.47538 -0.556911 0.830572 1 0.5 0 1
259 1 13.8556 67.8945 0 13.8556 -11.3715 0 -836.053 699.527 125.105 111.261 -0.134698 -0.990887 1 0.5 0 1
260 1 73.5511 71.9169 0 152.817 -7.34911 0 521.646 -426.688 123.168 77.4921 0.610813 0.791775 1 0.5 0 1
261 1 7.10938 16.9608 0 7.10938 16.9608 0 -846.517 -549.945 -54.122 -40.0759 -0.476098 0.879392 1 0.5 0 1
262 1 57.1665 63.4035 0 136.433 -15.8625 0 -930.7 308.848 -7.78842 54.8865 -0.879968 -0.475034 1 0.5 0 1
263 1 2.61611 68.5862 0 -76.6499 -89.9458 0 745.041 204.78 -95.2881 109.475 0.907646 -0.419737 1 0.5 0 1
264 1 15.6956 34.1333 0 174.228 -45.1327 0 133.491 -347.851 -21.794 -65.5606 -0.995842 0.0911008 1 0.5 0 1
265 1 51.4789 31.0961 0 51.4789 110.362 0 515.029 20.6358 39.7202 57.3736 0.284836 0.958576 1 0.5 0 1
266 1 56.3112 55.1964 0 56.3112 55.1964 0 3.0661 -335.224 30.5243 26.8355 0.612797 0.79024 1 0.5 0 1
267 1 73.2338 63.7445 0 -6.03218 -15.5215 0 313.048 896.503 41.9353 142.091 -0.887384 -0.461031 1 0.5 0 1
268 1 68.1347 61.753 0 68.1347 61.753 0 807.932 97.0073 -152.029 -145.544 0.934732 -0.355353 1 0.5 0 1
269 1 59.1713 71.0582 0 138.437 71.0582 0 -193.558 205.03 109.03 -148.213 0.844786 -0.535104 1 0.5 0 1
270 1 5.86921 69.5486 0 5.86921 -9.71744 0 -63.918 -254.983 119.325 -5.6649 -0.769305 -0.638882 1 0.5 0 1
271 1 61.9276 12.7073 0 141.194 12.7073 0 667.323 236.475 -37.5775 3.11569 0.987246 0.159204 1 0.5 0 1
272 1 50.7573 40.7707 0 50.7573 40.7707 0 84.7311 159.141 107.225 -170.33 0.932887 0.360169 1 0.5 0 1
273 1 60.0676 52.4379 0 60.0676 52.4379 0 -732.146 -329.209 -46.6295 135.755 -0.736689 -0.676232 1 0.5 0 1
274 1 23.101 45.9247 0 102.367 45.9247 0 -178.741 306.906 77.0917 67.2558 -0.123493 0.992345 1 0.5 0 1
275 1 11.2922 66.7738 0 90.5582 -12.4922 0 -647.892 -142.755 63.4528 85.563 0.0344126 -0.999408 1 0.5 0 1
276 1 57.8199 47.2357 0 57.8199 47.2357 0 -800.215 185.738 88.0946 295.974 0.545599 0.838047 1 0.5 0 1
277 1 58.8305 68.9963 0 58.8305 -10.2697 0 804.334 -108.172 -143.893 52.7895 0.459537 -0.888159 1 0.5 0 1
278 1 9.0268 34.2093 0 -70.2392 113.475 0 357.178 622.682 64.3938 65.9346 0.592417 -0.805631 1 0.5 0 1
279 1 16.0841 43.2863 0 95.3501 -115.246 0 -60.4844 440.074 -60.5236 23.7515 -0.706588 0.707626 1 0.5 0 1
280 1 6.86743 68.5034 0 -72.3986 -90.0286 0 -166.249 -382.67 90.0355 -49.2587 0.822933 -0.568139 1 0.5 0 1
281 1 69.5068 57.6544 0 69.5068 57.6544 0 -613.342 478.139 159.166 -72.0545 -0.831295 0.555831 1 0.5 0 1
282 1 48.1974 51.1628 0 48.1974 -28.1032 0 -626.216 -285.265 139.074 94.799 0.956279 0.292456 1 0.5 0 1
283 1 68.2629 32.9179 0 -11.0031 112.184 0 275.116 299.947 -127.852 -10.6792 -0.52577 -0.850627 1 0.5 0 1
284 1 4.54584 30.9457 0 4.54584 110.212 0 796.763 -74.9286 -58.3688 -7.15343 -0.0313306 -0.999509 1 0.5 0 1
285 1 64.8258 36.4889 0 64.8258 36.4889 0 -882.059 300.137 -10.6094 -151.068 -0.871695 -0.49005 1 0.5 0 1