ITEM: TIMESTEP
190000
ITEM: NUMBER OF ATOMS
4000
ITEM: BOX BOUNDS pp pp pp
0.0000000000000000e+00 7.9266000000000005e+01
0.0000000000000000e+00 7.9266000000000005e+01
-5.0000000000000000e-01 5.0000000000000000e-01
ITEM: ATOMS id type x y z xu yu zu vx vy fx fy mux muy mu radius omegaz mass
1 1 6.10691 62.0408 0 85.3729 62.0408 0 452.139 -1050.58 -35.4671 -46.7195 -0.235982 -0.971757 1 0.5 0 1
2 1 20.1898 62.934 0 20.1898 -16.332 0 -3.58588 -603.429 25.054 69.3369 0.96764 0.252335 1 0.5 0 1
3 1 30.1556 49.6392 0 30.1556 -29.6268 0 824.266 -257.376 -52.7275 39.4565 -0.996629 0.0820347 1 0.5 0 1
4 1 52.9958 15.9785 0 52.9958 95.2445 0 575.86 -588.381 -82.3627 66.7575 -0.0383959 -0.999263 1 0.5 0 1
5 1 7.78515 29.1863 0 7.78515 29.1863 0 151.088 680.983 -24.2919 -29.2039 -0.794787 -0.606888 1 0.5 0 1
6 1 74.6157 27.0284 0 -4.65034 27.0284 0 252.94 -337.362 39.7152 86.1288 -0.997035 0.07695 1 0.5 0 1
7 1 68.8491 46.7366 0 68.8491 46.7366 0 -1355.56 -765.208 51.1459 125.878 -0.216403 0.976304 1 0.5 0 1
8 1 25.4333 56.5772 0 25.4333 -22.6888 0 145.647 264.065 -30.3354 11.7435 -0.10082 -0.994905 1 0.5 0 1
9 1 68.4104 23.2037 0 68.4104 23.2037 0 9.99276 756.127 -241.652 -72.865 -0.934483 -0.356007 1 0.5 0 1
10 1 25.5293 50.3903 0 25.5293 50.3903 0 -106.423 -289.003 -137.975 -34.1595 -0.999996 -0.00284804 1 0.5 0 1
11 1 40.428 15.174 0 -38.838 15.174 0 -61.7786 728.269 -12.9069 -29.0266 -0.820385 -0.571812 1 0.5 0 1
12 1 1.98034 19.6744 0 81.2463 98.9404 0 474.43 322.217 -52.0447 95.8158 -0.609655 0.792667 1 0.5 0 1
13 1 35.179 29.9418 0 35.179 29.9418 0 178.1 -433.972 67.3296 -118.731 0.646623 -0.762809 1 0.5 0 1
14 1 17.0953 17.4679 0 -62.1707 17.4679 0 192.076 434.036 -82.0057 -57.2282 -0.820057 -0.572282 1 0.5 0 1
15 1 13.9712 30.413 0 13.9712 30.413 0 -170.513 -393.966 -41.3934 -32.2878 -0.998699 -0.0509884 1 0.5 0 1
16 1 37.9619 56.201 0 -41.3041 -23.065 0 182.161 -309.069 -59.9365 -31.6535 -0.380542 -0.924764 1 0.5 0 1
17 1 78.7652 6.38985 0 78.7652 85.6558 0 51.6336 11.4689 97.5353 22.0649 0.975353 0.220649 1 0.5 0 1
18 1 20.3628 45.3752 0 20.3628 45.3752 0 97.7622 115.732 -81.9272 -36.3981 0.874472 0.485076 1 0.5 0 1
19 1 6.9387 38.365 0 6.9387 38.365 0 363.173 84.0133 76.1321 59.4128 -0.427498 0.904016 1 0.5 0 1
20 1 19.4493 54.3812 0 19.4493 54.3812 0 -1138.29 -752.822 11.5252 130.525 0.820317 0.57191 1 0.5 0 1
21 1 23.8221 16.0831 0 23.8221 16.0831 0 570.76 370.773 24.4993 115.066 -0.808463 0.588548 1 0.5 0 1
22 1 70.3422 22.3056 0 70.3422 22.3056 0 -259.466 -191.29 -64.1885 -106.862 0.65235 -0.757918 1 0.5 0 1
23 1 9.45097 1.04353 0 88.717 1.04353 0 -57.6251 149.389 78.4483 62.015 0.784483 0.62015 1 0.5 0 1
24 1 66.1988 54.8853 0 66.1988 -24.3807 0 -142.51 104.023 143.599 -49.5625 -0.266593 -0.963809 1 0.5 0 1
25 1 32.5019 48.0214 0 -46.7641 -31.2446 0 -294.776 9.82501 -121.734 61.5544 -0.570803 -0.821087 1 0.5 0 1
26 1 46.6742 30.6238 0 46.6742 -48.6422 0 -434.107 -120.305 -48.6285 -41.1202 0.771408 -0.63634 1 0.5 0 1
27 1 8.07362 7.48381 0 8.07362 86.7498 0 185.523 162.537 -48.0957 87.6744 -0.480957 0.876744 1 0.5 0 1
28 1 28.8577 68.5576 0 28.8577 68.5576 0 7.91741 141.814 52.3354 2.86838 -0.998977 -0.0452182 1 0.5 0 1
29 1 77.0552 36.7003 0 -2.21083 36.7003 0 99.1583 827.792 106.814 1.41706 -0.975888 0.218273 1 0.5 0 1
30 1 56.9226 22.4037 0 56.9226 101.67 0 -267.782 167.605 93.9802 -23.873 0.821022 0.570897 1 0.5 0 1
31 1 77.8878 23.887 0 -1.37819 23.887 0 1290.44 -397.543 -62.5643 -124.773 -0.901085 -0.433642 1 0.5 0 1
32 1 37.4171 33.1593 0 37.4171 33.1593 0 -335.903 0.537954 21.4246 -21.0155 -0.774872 -0.632119 1 0.5 0 1
33 1 64.5757 56.0849 0 64.5757 -23.1811 0 514.288 277.168 -2.65984 -3.02903 0.998862 0.0477037 1 0.5 0 1
34 1 8.23418 41.8142 0 87.5002 41.8142 0 -511.63 -74.6721 117.649 -55.9909 -0.435822 0.900033 1 0.5 0 1
35 1 36.0162 63.8029 0 -43.2498 63.8029 0 408.299 608.582 -90.4111 42.1172 -0.903961 0.427614 1 0.5 0 1
36 1 60.9 55.3908 0 60.9 -23.8752 0 286.575 758.096 57.7153 -85.4558 0.00701434 -0.999975 1 0.5 0 1
37 1 72.3042 40.0202 0 72.3042 40.0202 0 -639.733 -224.43 68.6073 145.739 0.609655 0.792667 1 0.5 0 1
38 1 16.9961 71.9764 0 96.2621 71.9764 0 -479.827 -409.876 43.7904 86.6866 0.458947 0.888463 1 0.5 0 1
39 1 37.8368 27.4306 0 37.8368 -51.8354 0 633.552 -137.561 9.60264 -99.5379 0.0960264 -0.995379 1 0.5 0 1
40 1 18.2469 37.1802 0 -61.0191 37.1802 0 -355.991 515.49 -0.260365 99.9997 -0.00260365 0.999997 1 0.5 0 1
41 1 70.0453 50.0079 0 70.0453 50.0079 0 157.038 -387.267 7.35086 -49.1704 -0.82056 -0.571561 1 0.5 0 1
42 1 74.3395 57.4945 0 -4.92645 57.4945 0 180.074 -106.854 -99.5957 57.9961 -0.574873 -0.818243 1 0.5 0 1
43 1 38.2244 73.8006 0 -41.0416 73.8006 0 504.594 -164.573 -10.8606 45.6468 -0.989856 0.142071 1 0.5 0 1
44 1 60.3192 18.31 0 60.3192 97.576 0 419.981 -81.4987 -6.8275 -26.6201 0.580609 0.814183 1 0.5 0 1
45 1 38.4602 1.38531 0 38.4602 1.38531 0 -626.127 297.788 12.5211 25.3025 -0.291517 -0.956566 1 0.5 0 1
46 1 9.71886 38.7876 0 9.71886 38.7876 0 255.57 -524.268 -29.5119 153 0.481823 0.876269 1 0.5 0 1
47 1 34.6373 72.7968 0 34.6373 -6.46923 0 20.1817 -353.212 25.7905 111.333 0.619316 -0.785142 1 0.5 0 1
48 1 18.4856 42.8828 0 18.4856 42.8828 0 -83.1518 -136.864 -93.0578 45.9671 -0.997124 -0.0757909 1 0.5 0 1
49 1 26.6833 8.24715 0 105.949 87.5131 0 274.067 -500.329 -42.3513 -151.022 -0.32719 -0.944959 1 0.5 0 1
50 1 52.8328 28.1678 0 52.8328 28.1678 0 73.5683 1106.9 -13.516 -22.5488 -0.139574 0.990212 1 0.5 0 1
51 1 74.3431 15.2833 0 -4.92292 15.2833 0 724.642 545.386 -16.1622 -59.0114 -0.9853 0.170831 1 0.5 0 1
52 1 11.7846 25.2634 0 91.0506 25.2634 0 -372.078 -435.454 -48.6982 87.3412 -0.486982 0.873412 1 0.5 0 1
53 1 20.3344 48.4416 0 20.3344 127.708 0 364.754 261.025 -124.693 -145.721 -0.929346 0.36921 1 0.5 0 1
54 1 56.4824 26.7852 0 56.4824 26.7852 0 -697.585 -23.3251 76.4271 56.6708 0.23941 -0.970919 1 0.5 0 1
55 1 25.3913 11.6458 0 104.657 90.9118 0 414.76 203.637 81.149 14.4474 0.822625 0.568584 1 0.5 0 1
56 1 25.7626 48.6225 0 25.7626 48.6225 0 125.627 -725.256 286.35 46.2954 -0.501647 0.865072 1 0.5 0 1
57 1 31.6661 77.882 0 31.6661 77.882 0 -185.714 -468.964 -19.3255 9.57281 -0.999652 0.0263889 1 0.5 0 1
58 1 70.7888 24.8666 0 -8.47724 24.8666 0 551.076 575.58 31.7918 24.5237 -0.309031 0.951052 1 0.5 0 1
59 1 55.0777 31.099 0 55.0777 31.099 0 -121.496 641.463 48.732 12.7141 -0.290268 0.956945 1 0.5 0 1
60 1 58.9367 37.3366 0 58.9367 37.3366 0 -339.136 215.891 -80.3888 126.856 0.935651 0.352926 1 0.5 0 1
61 1 61.272 41.1296 0 61.272 41.1296 0 195.604 -164.396 -183.084 -153.024 -0.53423 0.845339 1 0.5 0 1
62 1 18.2901 3.37514 0 97.5561 3.37514 0 -241.751 -360.212 32.7039 161.085 0.575192 0.818019 1 0.5 0 1
63 1 29.7467 23.6676 0 -49.5193 23.6676 0 -97.4614 667.506 -63.9173 -76.9063 -0.639173 -0.769063 1 0.5 0 1
64 1 6.73759 14.288 0 86.0036 93.554 0 792.463 -56.5966 97.1984 23.5048 0.971984 0.235048 1 0.5 0 1
65 1 32.8238 37.3008 0 112.09 116.567 0 145.162 -205.121 91.9978 -39.1971 0.919978 -0.391971 1 0.5 0 1
66 1 18.9776 11.7192 0 98.2436 90.9852 0 5.87659 206.423 54.2694 -11.4197 0.313721 0.949515 1 0.5 0 1
67 1 56.698 39.2652 0 56.698 39.2652 0 133.936 -83.3574 80.7526 -216.499 0.91765 0.397389 1 0.5 0 1
68 1 34.7981 53.4148 0 34.7981 53.4148 0 28.5615 184.499 29.9357 -114.293 0.554961 -0.831876 1 0.5 0 1
69 1 17.9915 58.0542 0 17.9915 58.0542 0 56.6926 631.41 -89.8483 165.511 0.235461 -0.971884 1 0.5 0 1
70 1 50.6798 35.102 0 50.6798 114.368 0 36.6665 -338.623 -143.826 -112.582 0.569147 0.822236 1 0.5 0 1
71 1 35.8578 6.04399 0 35.8578 6.04399 0 -377.523 -560.731 52.5635 3.73916 0.811284 -0.584652 1 0.5 0 1
72 1 3.17392 55.5268 0 3.17392 55.5268 0 680.42 -68.8224 47.4357 -109.405 -0.535459 -0.844562 1 0.5 0 1
73 1 29.6728 21.0966 0 29.6728 21.0966 0 348.375 708.575 -53.2355 84.6521 -0.532355 0.846521 1 0.5 0 1
74 1 74.8065 11.6859 0 74.8065 90.9519 0 517.679 -265.907 -99.9932 1.16687 -0.999932 0.0116687 1 0.5 0 1
75 1 78.7496 35.704 0 -0.516357 35.704 0 -5.95164 -4.63567 -186.184 266.801 0.489246 0.872146 1 0.5 0 1
76 1 55.8696 30.4879 0 -23.3964 30.4879 0 -372.061 -223.653 -146.237 119.519 -0.488752 0.872423 1 0.5 0 1
77 1 2.71522 32.6949 0 2.71522 32.6949 0 -234.393 -119.011 119.244 51.6711 0.93269 0.36068 1 0.5 0 1
78 1 13.3396 68.4306 0 13.3396 68.4306 0 -491.77 183.659 -18.8884 49.0632 0.951152 0.308724 1 0.5 0 1
79 1 19.5105 1.84164 0 19.5105 81.1076 0 69.0306 -407.353 -8.61446 -77.0898 -0.7161 -0.697998 1 0.5 0 1
80 1 3.46921 22.2939 0 3.46921 -56.9721 0 217.414 111.364 -50.763 -41.5771 -0.921143 0.389224 1 0.5 0 1
81 1 48.4337 33.2891 0 127.7 33.2891 0 -97.6205 -167.053 -84.0253 98.5453 -0.28567 -0.958328 1 0.5 0 1
82 1 4.08508 37.0471 0 4.08508 37.0471 0 -687.553 -190.75 -0.264185 -114.066 0.444038 0.896008 1 0.5 0 1
83 1 0.725462 3.57949 0 79.9915 82.8455 0 -108.777 109.392 19.236 98.1324 0.19236 0.981324 1 0.5 0 1
84 1 78.7897 42.8467 0 -0.476266 42.8467 0 657.748 -661.672 -36.4346 377.389 -0.575109 -0.818077 1 0.5 0 1
85 1 21.1414 58.0188 0 21.1414 -21.2472 0 88.047 -763.926 -188.911 82.1416 0.918204 0.396108 1 0.5 0 1
86 1 16.2024 39.6729 0 16.2024 39.6729 0 371.257 364.959 -5.86725 -14.7034 -0.851118 0.524975 1 0.5 0 1
87 1 30.324 43.462 0 30.324 43.462 0 -106.205 -75.5675 -48.9676 53.1593 -0.989539 0.144263 1 0.5 0 1
88 1 27.0923 13.1524 0 27.0923 13.1524 0 -111.295 -611.933 96.4574 -28.7013 -0.250734 -0.968056 1 0.5 0 1
89 1 25.6571 62.3306 0 25.6571 62.3306 0 601.98 186.325 -34.6415 -16.4562 0.999338 -0.0363735 1 0.5 0 1
90 1 7.37935 34.8647 0 7.37935 34.8647 0 394.499 -4.53342 -132.32 46.976 -0.324115 -0.946018 1 0.5 0 1
91 1 14.5906 60.9576 0 14.5906 -18.3084 0 -22.6469 -116.57 -98.2381 93.745 0.815499 -0.578759 1 0.5 0 1
92 1 3.33185 52.5698 0 3.33185 52.5698 0 -316.391 -256.859 -127.6 134.615 -0.952325 0.305086 1 0.5 0 1
93 1 3.96464 43.247 0 3.96464 43.247 0 -14.9584 517.946 74.9589 -132.62 0.950837 0.309691 1 0.5 0 1
94 1 73.2393 34.0502 0 73.2393 34.0502 0 -215.864 -1018.28 -58.0608 241.762 0.892418 -0.451209 1 0.5 0 1
95 1 68.7911 45.7794 0 68.7911 45.7794 0 776.69 -0.786956 179.694 122.051 0.787253 0.61663 1 0.5 0 1
96 1 56.509 38.227 0 56.509 38.227 0 228.231 -168.859 -14.2266 177.978 0.829764 0.558114 1 0.5 0 1
97 1 53.8074 28.5892 0 53.8074 28.5892 0 316.387 315.556 -39.0598 -29.9419 -0.376668 -0.926349 1 0.5 0 1
98 1 35.0868 10.0663 0 35.0868 89.3323 0 -91.289 647.571 69.6575 -108.468 0.662888 -0.748718 1 0.5 0 1
99 1 36.655 53.6191 0 36.655 -25.6469 0 692.81 -594.935 -190.489 54.1973 0.502456 -0.864603 1 0.5 0 1
100 1 75.0711 41.1992 0 75.0711 41.1992 0 -53.3396 531.744 -43.3224 28.7596 -0.825027 -0.565094 1 0.5 0 1
101 1 50.3311 44.3532 0 50.3311 -34.9128 0 -274.958 580.877 153.064 -45.455 0.122237 -0.992501 1 0.5 0 1
102 1 1.8309 40.3861 0 1.8309 40.3861 0 -1410.87 114.834 121.957 -35.1544 -0.947574 0.319537 1 0.5 0 1
103 1 57.0586 12.1974 0 -22.2074 91.4634 0 -399.351 -31.4996 -40.6267 5.48597 -0.896491 0.443061 1 0.5 0 1
104 1 55.9462 39.878 0 55.9462 119.144 0 199.525 129.978 -237.386 93.0319 0.724106 0.689689 1 0.5 0 1
105 1 46.7658 77.2953 0 -32.5002 -1.97069 0 20.7468 -337.015 61.7921 78.624 0.617921 0.78624 1 0.5 0 1
106 1 0.606547 16.0866 0 0.606547 16.0866 0 -2.87727 -626.188 64.0799 48.1156 -0.999967 0.00808043 1 0.5 0 1
107 1 65.1727 33.5263 0 65.1727 33.5263 0 -250.406 535.095 190.674 -20.0296 -0.581692 0.813409 1 0.5 0 1
108 1 2.91599 34.6374 0 2.91599 113.903 0 -469.336 -49.9235 266.282 -140.811 0.471619 0.881802 1 0.5 0 1
109 1 38.2186 67.2942 0 -41.0474 67.2942 0 -480.777 -547.919 -21.3255 -29.6997 -0.854856 0.518865 1 0.5 0 1
110 1 47.8843 29.4646 0 47.8843 29.4646 0 -83.0868 576.659 -118.431 64.2101 0.881994 0.471262 1 0.5 0 1
111 1 50.0749 54.3652 0 50.0749 54.3652 0 28.5373 -182.342 59.1935 80.5985 0.591935 0.805985 1 0.5 0 1
112 1 12.0318 45.8202 0 12.0318 45.8202 0 -388.536 -514.742 17.0648 54.51 -0.999343 -0.0362468 1 0.5 0 1
113 1 43.5703 54.3602 0 -35.6957 54.3602 0 68.194 -289.945 -46.981 88.2768 -0.46981 0.882768 1 0.5 0 1
114 1 53.23 53.5333 0 53.23 53.5333 0 -833.308 -151.096 101.066 79.6455 0.936895 -0.34961 1 0.5 0 1
115 1 46.3103 2.45455 0 -32.9557 2.45455 0 -505.859 -422.988 65.1944 -75.8267 0.651944 -0.758267 1 0.5 0 1
116 1 37.0724 67.5508 0 37.0724 -11.7152 0 -293.957 -395.761 -20.3721 61.0952 -0.376554 -0.926395 1 0.5 0 1
117 1 31.5416 52.6988 0 31.5416 52.6988 0 186.511 213.052 4.60283 -46.1388 -0.862365 0.506287 1 0.5 0 1
118 1 57.2544 37.5872 0 57.2544 37.5872 0 -681.95 277.037 10.3879 19.0493 0.483254 -0.87548 1 0.5 0 1
119 1 67.7295 0.570625 0 67.7295 0.570625 0 718.417 95.1569 -27.8829 -107.648 0.835518 -0.549463 1 0.5 0 1
120 1 46.0287 18.3568 0 125.295 18.3568 0 -590.006 111.435 40.3499 -91.498 0.403499 -0.91498 1 0.5 0 1
121 1 27.538 6.695 0 -51.728 6.695 0 -399.691 708.034 -6.4966 -19.9413 -0.696464 -0.717591 1 0.5 0 1
122 1 52.9018 22.8555 0 52.9018 102.121 0 -648.159 -219.136 74.0007 -34.2023 0.987754 0.156019 1 0.5 0 1
123 1 78.9594 29.3826 0 -0.306643 29.3826 0 -153.381 -140.223 201.647 254.465 -0.686522 0.727109 1 0.5 0 1
124 1 28.0023 51.4538 0 28.0023 51.4538 0 220.888 -296.8 76.3953 -37.0226 -0.689583 -0.724206 1 0.5 0 1
125 1 66.6607 24.155 0 66.6607 24.155 0 -1146.18 -64.3241 205.492 51.5476 0.973062 -0.230542 1 0.5 0 1
126 1 10.4934 29.5974 0 89.7594 108.863 0 -255.039 -374.396 33.4911 -3.76196 -0.527616 0.849483 1 0.5 0 1
127 1 61.7209 27.3739 0 61.7209 106.64 0 68.4008 -244.188 87.5021 43.4999 0.762994 0.646405 1 0.5 0 1
128 1 13.8699 29.3478 0 -65.3961 29.3478 0 -74.3968 -424.358 -64.4039 -82.7113 -0.946316 -0.323244 1 0.5 0 1
129 1 67.9686 54.6989 0 67.9686 -24.5671 0 -65.3792 -168.474 -67.3885 -105.52 0.54529 -0.838248 1 0.5 0 1
130 1 73.867 53.4979 0 73.867 -25.7681 0 -574.031 -1.82748 109.01 32.1817 -0.537884 -0.843019 1 0.5 0 1
131 1 55.4109 11.5723 0 -23.8551 90.8383 0 -5.55556 -550.823 38.4334 92.3194 0.384334 0.923194 1 0.5 0 1
132 1 64.5134 28.6689 0 -14.7526 107.935 0 -463.553 -262.675 -104.239 -10.6508 0.590214 0.807246 1 0.5 0 1
133 1 53.9501 29.6123 0 53.9501 108.878 0 759.065 444.778 -66.877 -21.9248 -0.994423 -0.10547 1 0.5 0 1
134 1 30.0801 51.567 0 30.0801 51.567 0 175.987 238.684 96.7988 33.6523 -0.317789 -0.948161 1 0.5 0 1
135 1 22.9769 44.5726 0 22.9769 123.839 0 211.624 -1167.25 17.1591 48.9997 -0.533912 0.84554 1 0.5 0 1
136 1 22.5314 25.6528 0 22.5314 104.919 0 74.0226 -164.745 -32.7936 -94.47 -0.327936 -0.9447 1 0.5 0 1
137 1 51.5509 65.8579 0 130.817 65.8579 0 121.848 -342.739 43.7307 75.6395 0.131547 0.99131 1 0.5 0 1
138 1 2.91822 10.2611 0 2.91822 10.2611 0 -396.525 -212.134 -86.8687 -34.5541 -0.976163 -0.217039 1 0.5 0 1
139 1 28.2792 59.0886 0 28.2792 -20.1774 0 477.014 82.8779 47.076 -21.6279 -0.245108 -0.969496 1 0.5 0 1
140 1 28.0701 1.05676 0 28.0701 1.05676 0 143.94 -546.293 76.9063 5.14222 -0.998125 0.0612126 1 0.5 0 1
141 1 9.4063 52.4557 0 9.4063 52.4557 0 366.644 483.85 -113.579 88.4237 -0.234617 -0.972088 1 0.5 0 1
142 1 20.1795 70.3118 0 20.1795 70.3118 0 136.326 138.796 -26.5233 21.1919 -0.497279 0.867591 1 0.5 0 1
143 1 13.4241 31.3134 0 13.4241 110.579 0 -410.724 -163.139 -90.0752 24.3747 -0.997542 -0.0700744 1 0.5 0 1
144 1 42.6739 45.0868 0 42.6739 -34.1792 0 -494.573 201.223 -28.9137 -4.99017 -0.991373 0.131072 1 0.5 0 1
145 1 68.4994 15.5891 0 68.4994 94.8551 0 578.838 488.258 25.3656 -33.2194 0.874706 0.484653 1 0.5 0 1
146 1 35.2508 76.9421 0 35.2508 -2.32388 0 804.389 91.7554 -58.1679 105.761 0.480727 -0.87687 1 0.5 0 1
147 1 74.1686 65.9331 0 74.1686 -13.3329 0 698.732 -216.886 57.1332 106.862 0.56767 -0.823256 1 0.5 0 1
148 1 21.9242 11.8317 0 101.19 11.8317 0 584.88 554.298 232.453 -112.787 0.884851 0.465874 1 0.5 0 1
149 1 76.3251 29.0436 0 76.3251 108.31 0 40.4809 -266.223 -82.0652 51.9264 0.793756 -0.608236 1 0.5 0 1
150 1 70.4278 32.9265 0 -8.83816 32.9265 0 -501.576 849.95 126.421 -114.808 0.744466 0.66766 1 0.5 0 1
151 1 2.34682 54.9853 0 81.6128 -24.2807 0 523.944 108.765 80.9582 -158.981 0.598964 -0.800776 1 0.5 0 1
152 1 27.8541 45.2968 0 27.8541 124.563 0 36.8993 535.371 36.0867 -0.571699 0.868699 -0.49534 1 0.5 0 1
153 1 75.9886 57.3029 0 75.9886 57.3029 0 -706.767 905.856 228.761 37.8356 0.906142 -0.422975 1 0.5 0 1
154 1 4.24926 47.1544 0 4.24926 47.1544 0 316.431 -2.97263 -166.816 13.5585 -0.631731 -0.775188 1 0.5 0 1
155 1 76.9065 8.66349 0 -81.6255 8.66349 0 -34.3277 -753.27 -99.7793 -6.6398 -0.997793 -0.066398 1 0.5 0 1
156 1 75.6592 45.9407 0 75.6592 45.9407 0 -76.7325 -104.232 182.772 172.54 -0.792084 0.610412 1 0.5 0 1
157 1 76.9241 18.5585 0 -2.34192 18.5585 0 -327.441 -547.621 152.461 -148.646 -0.74606 0.665879 1 0.5 0 1
158 1 69.9874 36.3732 0 -9.27855 36.3732 0 453.093 -109.589 105.75 14.3619 -0.991554 0.129692 1 0.5 0 1
159 1 67.0831 4.94344 0 67.0831 84.2094 0 252.836 -797.683 -69.9099 -71.5025 -0.699099 -0.715025 1 0.5 0 1
160 1 32.6897 5.63198 0 32.6897 5.63198 0 1062.9 710.004 -3.46517 18.412 -0.565587 0.824689 1 0.5 0 1
161 1 17.9083 71.458 0 17.9083 -7.80797 0 -329.912 -616.047 76.4013 -133.59 0.989903 0.141748 1 0.5 0 1
162 1 6.83122 48.7126 0 6.83122 48.7126 0 355.3 409.623 -36.3373 16.7668 0.0141603 -0.9999 1 0.5 0 1
163 1 65.4096 45.773 0 65.4096 45.773 0 -395.943 -297.898 -92.7571 18.7149 -0.904604 -0.426253 1 0.5 0 1
164 1 27.1421 36.8148 0 27.1421 36.8148 0 -218.458 -315.564 -8.31027 -99.6541 -0.0831027 -0.996541 1 0.5 0 1
165 1 32.443 49.9698 0 32.443 -29.2962 0 64.1457 -1016.55 95.1329 -16.2358 -0.982124 0.188237 1 0.5 0 1
166 1 12.7122 42.1222 0 12.7122 42.1222 0 -394.627 67.4402 -39.2086 52.0493 -0.841329 -0.540523 1 0.5 0 1
167 1 65.9208 22.5264 0 65.9208 22.5264 0 121.288 -984.865 44.3871 -23.2749 -0.0228182 -0.99974 1 0.5 0 1
168 1 3.89447 19.5507 0 3.89447 98.8167 0 250.832 299.796 -6.99344 -75.2109 -0.926552 -0.376166 1 0.5 0 1
169 1 15.5174 53.0348 0 15.5174 132.301 0 480.781 -251.115 20.2692 47.5883 -0.406383 0.913703 1 0.5 0 1
170 1 13.6932 25.6916 0 92.9592 104.958 0 -720.679 -28.1143 -86.3362 -15.3927 0.780789 0.624794 1 0.5 0 1
171 1 42.843 28.3524 0 122.109 28.3524 0 -426.955 -34.8255 99.6866 -7.91088 0.996866 -0.0791088 1 0.5 0 1
172 1 8.54582 53.0193 0 8.54582 -26.2467 0 -231.437 -465.982 66.9905 49.7064 -0.850772 0.525536 1 0.5 0 1
173 1 28.8818 63.6638 0 28.8818 -15.6022 0 106.717 -302.281 9.19083 -36.7812 -0.980885 -0.19459 1 0.5 0 1
174 1 9.35568 49.3869 0 9.35568 49.3869 0 495.369 -515.967 118.971 -154.523 -0.919983 0.391958 1 0.5 0 1
175 1 5.73766 16.4259 0 5.73766 16.4259 0 -594.924 246.353 -96.1044 27.6395 -0.961044 0.276395 1 0.5 0 1
176 1 11.1398 47.3714 0 11.1398 47.3714 0 151.545 -609.226 -78.7411 -132.21 -0.997666 0.0682828 1 0.5 0 1
177 1 23.7416 5.80355 0 23.7416 85.0695 0 -99.1308 -455.063 -52.7547 52.0914 -0.292468 -0.956275 1 0.5 0 1
178 1 60.0607 25.0099 0 -19.2053 104.276 0 -54.1176 539.439 -44.2738 -70.1307 -0.641716 0.766942 1 0.5 0 1
179 1 4.19368 53.0889 0 4.19368 -26.1771 0 28.6312 -114.186 -190.523 48.7468 -0.619422 -0.785058 1 0.5 0 1
180 1 76.4973 39.1375 0 76.4973 39.1375 0 -499.728 317.49 81.4258 274.284 -0.877926 0.478796 1 0.5 0 1
181 1 57.6215 23.1231 0 57.6215 23.1231 0 124.518 248.913 -268.14 -187.934 -0.926468 0.376375 1 0.5 0 1
182 1 7.46348 9.94561 0 7.46348 89.2116 0 -165.846 265.587 -85.8726 -51.2434 -0.858726 -0.512434 1 0.5 0 1
183 1 59.9185 52.9484 0 59.9185 -26.3176 0 126.723 818.354 56.6304 -138.627 0.808472 0.588534 1 0.5 0 1
184 1 66.0797 39.3557 0 66.0797 39.3557 0 -261.474 904.412 -123.674 56.2069 -0.497989 0.867183 1 0.5 0 1
185 1 13.0825 37.3964 0 13.0825 37.3964 0 -40.2377 288.644 120.066 50.1251 -0.861432 -0.507874 1 0.5 0 1
186 1 16.073 71.399 0 16.073 71.399 0 56.1763 -716.255 -56.3042 55.4882 -0.068097 0.997679 1 0.5 0 1
187 1 60.5104 31.5454 0 -18.7556 110.811 0 98.4915 452.406 -88.9883 -109.979 0.184916 0.982754 1 0.5 0 1
188 1 19.5454 77.1276 0 98.8114 77.1276 0 -347.387 517.388 48.8294 -73.6187 0.68179 0.731548 1 0.5 0 1
189 1 28.6613 11.7025 0 28.6613 11.7025 0 284.597 10.0476 -36.066 -64.5674 0.364496 0.931205 1 0.5 0 1
190 1 43.8795 68.6807 0 -35.3865 68.6807 0 -38.9587 516.531 -84.6869 -53.1802 -0.846869 -0.531802 1 0.5 0 1
191 1 57.8886 15.3689 0 137.155 15.3689 0 -406.77 -1224.6 74.6871 36.5823 0.986888 0.161405 1 0.5 0 1
192 1 62.7049 34.288 0 62.7049 34.288 0 462.722 -129.171 38.4536 69.5375 0.530661 -0.847584 1 0.5 0 1
193 1 31.2579 26.067 0 -48.0081 26.067 0 174.639 205.423 -17.6736 98.6852 -0.147925 0.988999 1 0.5 0 1
194 1 26.2796 54.0325 0 26.2796 54.0325 0 231.448 279.384 -54.3599 -80.1198 0.134483 -0.990916 1 0.5 0 1
195 1 57.3859 25.1866 0 57.3859 25.1866 0 53.4557 229.147 -64.2725 138.247 -0.816013 0.578034 1 0.5 0 1
196 1 61.4973 37.4775 0 61.4973 37.4775 0 371.991 -276.195 -121.091 -75.6803 0.0544511 -0.998516 1 0.5 0 1
197 1 71.055 58.9408 0 -8.21097 58.9408 0 747.108 -143.841 -63.4067 130.388 0.981207 -0.192959 1 0.5 0 1
198 1 76.1155 42.5294 0 76.1155 42.5294 0 -130.792 80.5296 16.6144 130.035 -0.974244 0.225496 1 0.5 0 1
199 1 68.233 62.6251 0 -11.033 -16.6409 0 -251.031 195.975 -62.3025 -80.8909 0.622232 -0.782833 1 0.5 0 1
200 1 37.1255 74.9047 0 37.1255 74.9047 0 504.602 305.28 18.0592 80.6995 0.999564 0.0295262 1 0.5 0 1
201 1 11.0384 66.457 0 11.0384 -12.809 0 -137.539 -56.6513 -49.3109 -34.9618 0.547166 0.837024 1 0.5 0 1
202 1 58.1486 56.1617 0 -21.1174 -23.1043 0 -245.95 105.931 -56.1391 16.1928 -0.545101 -0.83837 1 0.5 0 1
203 1 50.1141 72.0064 0 -29.1519 72.0064 0 -92.8828 -415.792 -93.9459 -34.2662 -0.939459 -0.342662 1 0.5 0 1
204 1 59.6849 76.0436 0 59.6849 -3.22236 0 272.699 -319.051 -200.712 62.2706 0.752784 -0.658268 1 0.5 0 1
205 1 20.659 52.6666 0 20.659 52.6666 0 -219.671 -95.6774 -18.1528 34.8336 -0.986643 0.162896 1 0.5 0 1
206 1 1.40523 56.4578 0 1.40523 -22.8082 0 -594.392 266.317 43.9893 -41.9477 -0.890161 -0.455645 1 0.5 0 1
207 1 23.9382 75.4112 0 23.9382 75.4112 0 -458.635 -639.136 107.19 8.90024 0.167735 0.985832 1 0.5 0 1
208 1 25.7937 36.4255 0 25.7937 36.4255 0 -281.874 460.498 -97.3514 -22.8626 -0.973514 -0.228626 1 0.5 0 1
209 1 38.6298 17.4849 0 38.6298 96.7509 0 -198.165 714.378 57.2219 82.0101 0.572219 0.820101 1 0.5 0 1
210 1 65.857 59.5604 0 -13.409 59.5604 0 720.373 -161.802 4.87844 79.1508 -0.0178026 -0.999842 1 0.5 0 1
211 1 63.4834 39.191 0 63.4834 39.191 0 -251.926 -79.1109 126.892 33.6008 0.418824 -0.908068 1 0.5 0 1
212 1 63.8736 62.3155 0 143.14 -16.9505 0 38.8511 71.5319 95.0877 -1.97561 0.990942 -0.134288 1 0.5 0 1
213 1 69.7067 61.2701 0 69.7067 61.2701 0 96.1343 -466.35 -115.808 23.9908 0.53864 0.842536 1 0.5 0 1
214 1 60.9604 24.5127 0 60.9604 103.779 0 -58.7306 332.249 -129.978 -153.681 0.14824 -0.988951 1 0.5 0 1
215 1 34.9735 73.7935 0 34.9735 -5.4725 0 -316.733 -729.079 21.7479 -16.1153 0.761328 -0.648367 1 0.5 0 1
216 1 23.7552 48.3947 0 23.7552 127.661 0 512.834 46.3267 -74.7968 -48.593 0.885405 0.46482 1 0.5 0 1
217 1 76.4691 3.17741 0 76.4691 3.17741 0 -506.211 -944.39 35.9075 85.9139 0.988495 0.151251 1 0.5 0 1
218 1 51.421 45.7516 0 51.421 45.7516 0 714.63 -86.698 -203.285 -39.7949 0.937274 0.348593 1 0.5 0 1
219 1 55.1437 40.4684 0 55.1437 40.4684 0 207.759 351.02 2.77 -30.3809 -0.786469 -0.61763 1 0.5 0 1
220 1 32.0203 53.6277 0 32.0203 -25.6383 0 784.209 835.792 71.4947 24.0807 -0.470672 -0.882308 1 0.5 0 1
221 1 32.9671 35.1097 0 32.9671 114.376 0 572.628 238.238 -27.587 -33.4241 0.328964 0.944342 1 0.5 0 1
222 1 28.2872 41.634 0 28.2872 -37.632 0 -286.105 -1018.37 -48.7148 -17.9964 0.7748 0.632206 1 0.5 0 1
223 1 75.083 34.8994 0 -4.18303 34.8994 0 -469.356 534.999 54.0768 -52.7837 -0.996588 0.0825385 1 0.5 0 1
224 1 74.6376 59.4889 0 -4.62837 59.4889 0 6.768 -454.561 209.787 -126.755 0.992392 0.123115 1 0.5 0 1
225 1 18.412 61.2621 0 97.678 -18.0039 0 420.22 -980.831 -19.4272 29.3314 0.977395 0.21142 1 0.5 0 1
226 1 25.1935 58.4012 0 25.1935 -20.8648 0 -116.207 -520.45 -108.317 18.2631 -0.736369 -0.67658 1 0.5 0 1
227 1 4.58347 33.577 0 83.8495 33.577 0 160.658 508.155 164.79 -92.6531 -0.0671716 0.997741 1 0.5 0 1
228 1 41.1107 54.1799 0 -38.1553 54.1799 0 56.9237 1379.2 -92.2746 -32.3679 -0.78493 -0.619585 1 0.5 0 1
229 1 54.4786 36.4911 0 54.4786 36.4911 0 449.702 -485.135 -8.54483 11.1193 0.985127 0.171829 1 0.5 0 1
230 1 55.014 34.8884 0 55.014 114.154 0 -810.025 678.896 45.1697 71.0104 -0.0676826 0.997707 1 0.5 0 1
231 1 66.8344 13.0731 0 66.8344 92.3391 0 -30.389 -471.525 42.7984 35.2025 -0.900507 0.434842 1 0.5 0 1
232 1 52.2725 29.9194 0 52.2725 -49.3466 0 -263.618 175.774 54.6621 113.294 0.701715 -0.712458 1 0.5 0 1
233 1 9.15154 42.2718 0 9.15154 42.2718 0 -653.872 -550.001 184.781 172.537 -0.616205 -0.787586 1 0.5 0 1
234 1 20.88 55.3397 0 20.88 -23.9263 0 -2.04233 3.6434 78.8004 160.754 -0.819711 0.572778 1 0.5 0 1
235 1 22.7583 66.7163 0 22.7583 66.7163 0 138.555 784.132 4.03752 -32.8855 0.328728 0.944425 1 0.5 0 1
236 1 28.0854 71.5088 0 107.351 71.5088 0 -312.55 -372.75 97.1835 11.2608 0.773799 -0.633431 1 0.5 0 1
237 1 57.4658 24.1412 0 57.4658 24.1412 0 -215.727 78.6471 66.7275 -64.0247 0.685821 -0.72777 1 0.5 0 1
238 1 64.2156 14.5157 0 64.2156 93.7817 0 -204.181 -63.4997 140.812 7.11416 0.53433 0.845276 1 0.5 0 1
239 1 6.16983 38.9279 0 85.4358 38.9279 0 -1.30203 41.7292 -86.8559 -7.2638 0.963006 0.269479 1 0.5 0 1
240 1 52.2386 17.5941 0 52.2386 17.5941 0 -192.952 -629.919 107.039 -4.63654 0.363399 -0.931634 1 0.5 0 1
241 1 50.41 34.1078 0 50.41 34.1078 0 656.08 -288.137 -10.3644 43.4973 -0.328433 -0.944527 1 0.5 0 1
242 1 0.798097 60.8867 0 80.0641 -18.3793 0 124.644 -138.643 -105.956 28.865 0.615152 -0.788409 1 0.5 0 1
243 1 52.621 12.359 0 -26.645 91.625 0 -58.8735 -191.028 -36.2887 -23.1621 -0.997463 0.0711874 1 0.5 0 1
244 1 38.9275 7.72346 0 38.9275 86.9895 0 1205.2 775.414 45.2265 89.1883 0.452265 0.891883 1 0.5 0 1
245 1 57.7212 47.1398 0 57.7212 47.1398 0 -231.344 -588.88 -190.862 22.922 0.594102 -0.80439 1 0.5 0 1
246 1 52.0106 37.4145 0 52.0106 37.4145 0 -689.039 463.479 -93.6362 -120.598 0.386415 -0.922325 1 0.5 0 1
247 1 68.4495 51.1797 0 68.4495 -28.0863 0 135.323 379.068 -121.139 -41.8144 -0.845233 -0.534399 1 0.5 0 1
248 1 36.5581 43.7199 0 -42.7079 122.986 0 209.544 379.011 -16.5795 -17.5635 -0.861137 0.508374 1 0.5 0 1
249 1 75.0033 20.3541 0 75.0033 20.3541 0 -134.869 251.214 61.7853 -90.289 0.948741 -0.316054 1 0.5 0 1
250 1 22.528 77.0708 0 101.794 77.0708 0 362.704 -121.892 -127.962 -70.2354 0.870976 0.491326 1 0.5 0 1
251 1 38.1972 0.308412 0 38.1972 158.84 0 -152.941 -279.587 41.084 -12.3284 -0.930797 0.365535 1 0.5 0 1
252 1 30.015 68.6017 0 30.015 68.6017 0 1007.09 198.524 47.9044 66.8816 -0.464129 0.885768 1 0.5 0 1
253 1 19.7639 67.2234 0 19.7639 67.2234 0 12.4921 207.267 45.184 118.383 0.757262 0.653111 1 0.5 0 1
254 1 47.5305 31.7483 0 47.5305 111.014 0 50.9901 -235.625 -44.7952 59.957 0.308252 0.951305 1 0.5 0 1
255 1 5.26953 30.9868 0 84.5355 110.253 0 765.912 -38.4856 -119.449 66.2202 -0.736072 0.676903 1 0.5 0 1
256 1 71.3906 39.6271 0 -7.87539 39.6271 0 -231.543 473.63 -30.5681 152.006 0.938213 -0.34606 1 0.5 0 1
257 1 10.1047 35.2553 0 10.1047 114.521 0 -162.865 296.973 14.184 -35.4236 -0.927391 -0.374094 1 0.5 0 1
258 1 29.4324 36.2741 0 29.4324 -42.9919 0 -571.922 55.2907 -99.1435 13.0602 -0.991435 0.130602 1 0.5 0 1
259 1 10.0753 56.3037 0 89.3413 56.3037 0 -240.228 -317.361 -25.9736 -48.0109 -0.570986 0.82096 1 0.5 0 1
260 1 47.3116 4.55356 0 126.578 4.55356 0 190.166 -888.96 98.0694 -19.555 0.980694 -0.19555 1 0.5 0 1
261 1 52.7938 11.1744 0 -26.4722 11.1744 0 149.026 92.0589 -25.8133 -6.69529 -0.966978 0.254859 1 0.5 0 1
262 1 59.0413 56.7997 0 138.307 -22.4663 0 947.346 -571.537 43.8536 -133.327 0.179391 -0.983778 1 0.5 0 1
263 1 33.6445 65.5202 0 -45.6215 -13.7458 0 235.666 55.4586 -58.1208 3.02037 0.224374 -0.974503 1 0.5 0 1
264 1 51.951 19.6249 0 131.217 19.6249 0 1.9287 224.697 164.47 -65.4979 0.994083 -0.108621 1 0.5 0 1
265 1 49.8566 25.0705 0 49.8566 104.336 0 399.062 226.321 39.6629 -33.5412 0.766143 0.64267 1 0.5 0 1
266 1 56.8305 48.6945 0 56.8305 48.6945 0 -1097.57 -487.846 122.757 -35.1948 0.872629 -0.488383 1 0.5 0 1
267 1 75.3997 63.5332 0 -3.86626 -15.7328 0 -460.662 -522.716 50.1054 -14.013 -0.0780538 -0.996949 1 0.5 0 1
268 1 66.5416 57.9249 0 66.5416 57.9249 0 757.094 251.78 -74.7673 -99.8961 0.754872 -0.655872 1 0.5 0 1
269 1 32.0776 31.5355 0 111.344 31.5355 0 -361.28 -483.035 -65.9064 41.5035 -0.920582 0.39055 1 0.5 0 1
270 1 52.6391 48.2266 0 131.905 -31.0394 0 -129.804 -316.845 -2.91871 -9.79081 0.0170338 -0.999855 1 0.5 0 1
271 1 57.8843 21.9867 0 57.8843 21.9867 0 -113.143 -873.113 -108.888 71.0619 0.21339 -0.976967 1 0.5 0 1
272 1 53.3392 35.1377 0 53.3392 35.1377 0 -511.993 375.381 -158.231 -138.319 -0.540608 0.841275 1 0.5 0 1
273 1 61.2001 46.6668 0 61.2001 46.6668 0 170.719 -370.644 149.081 75.3466 0.857358 -0.514721 1 0.5 0 1
274 1 10.3643 55.3001 0 10.3643 -23.9659 0 -325.567 -252.633 -120.455 128.234 -0.240504 0.970648 1 0.5 0 1
275 1 6.26611 58.9335 0 85.5321 -20.3325 0 -60.2794 -99.3292 -50.8001 16.9151 -0.883094 -0.469196 1 0.5 0 1
276 1 60.5193 41.7301 0 60.5193 41.7301 0 -704.907 -599.622 201.952 24.727 0.762842 -0.646585 1 0.5 0 1
277 1 26.9595 14.4579 0 -52.3065 14.4579 0 85.4333 291.138 2.61458 -81.0055 -0.95063 -0.310327 1 0.5 0 1
278 1 34.7668 18.7021 0 -44.4992 97.9681 0 -312.966 -986.01 -15.8163 15.4892 -0.607614 0.794232 1 0.5 0 1
279 1 48.133 16.5211 0 127.399 16.5211 0 -334.019 594.434 59.5292 -14.0337 0.906554 -0.422089 1 0.5 0 1
280 1 36.7662 36.8957 0 36.7662 -42.3703 0 314.752 -338.096 -91.1799 -41.0636 -0.911799 -0.410636 1 0.5 0 1
281 1 68.7907 54.1433 0 68.7907 54.1433 0 43.8242 267.33 -15.7813 -126.131 0.999999 -0.00143159 1 0.5 0 1
282 1 49.5183 44.9616 0 49.5183 -34.3044 0 487.963 657.924 -139.956 96.2619 0.786134 -0.618057 1 0.5 0 1
283 1 73.5838 28.5384 0 -5.68217 107.804 0 -163.308 69.6536 -31.3481 12.55 -0.6359 0.771772 1 0.5 0 1
284 1 76.0531 18.9499 0 -3.21293 98.2159 0 789.319 483.277 -85.6364 116.711 0.917553 0.397612 1 0.5 0 1
285 1 69.405 31.616 0 69.405 31.616 0 44.9415 999.143 -89.5509 -126.423 0.984481 0.175493 1 0.5 0 1