ITEM: TIMESTEP
460000
ITEM: NUMBER OF ATOMS
4000
ITEM: BOX BOUNDS pp pp pp
0.0000000000000000e+00 7.9266000000000005e+01
0.0000000000000000e+00 7.9266000000000005e+01
-5.0000000000000000e-01 5.0000000000000000e-01
ITEM: ATOMS id type x y z xu yu zu vx vy fx fy mux muy mu radius omegaz mass
1 1 8.92814 64.8231 0 88.1941 64.8231 0 -487.557 125.595 -6.08009 -111.649 0.62834 -0.777939 1 0.5 0 1
2 1 60.4974 19.1673 0 60.4974 19.1673 0 -63.7684 364.898 -91.7418 -15.8175 -0.621124 -0.783713 1 0.5 0 1
3 1 39.3872 36.166 0 39.3872 -43.1 0 71.8622 -556.244 50.0991 -102.265 0.995083 -0.0990495 1 0.5 0 1
4 1 1.58558 17.2912 0 1.58558 17.2912 0 -359.313 320.418 -90.1293 -295.324 -0.491195 0.87105 1 0.5 0 1
5 1 0.536178 32.3841 0 0.536178 32.3841 0 223.589 -370.743 -18.2591 127.79 -0.934049 0.357144 1 0.5 0 1
6 1 67.8839 30.6924 0 -11.3821 30.6924 0 618.031 -633.051 61.2224 74.9766 0.707611 0.706602 1 0.5 0 1
7 1 67.1214 51.1617 0 67.1214 51.1617 0 -162.154 -310.55 -121.305 -97.9283 -0.323942 0.946077 1 0.5 0 1
8 1 15.6271 30.4503 0 15.6271 -48.8157 0 42.3039 138.151 76.6286 166.642 -0.97565 -0.219334 1 0.5 0 1
9 1 66.2806 28.3625 0 66.2806 28.3625 0 -453.992 190.772 94.6124 -218.173 -0.370823 0.928704 1 0.5 0 1
10 1 20.9494 53.9255 0 20.9494 53.9255 0 16.3623 369.366 -111.343 72.7053 -0.986454 -0.164038 1 0.5 0 1
11 1 65.3911 13.2079 0 -93.1409 13.2079 0 -758.687 168.976 -29.2707 -51.6682 -0.196062 0.980592 1 0.5 0 1
12 1 77.5625 23.5418 0 77.5625 102.808 0 -157.543 176.078 -10.855 26.1552 -0.913431 -0.406994 1 0.5 0 1
13 1 77.3505 67.2976 0 77.3505 -11.9684 0 634.673 135.151 83.5061 -55.5597 -0.97207 -0.234692 1 0.5 0 1
14 1 14.6513 40.7331 0 -143.881 40.7331 0 -845.758 103.596 -94.1273 -82.0269 -0.694625 0.719372 1 0.5 0 1
15 1 9.55061 36.1444 0 9.55061 36.1444 0 999.626 305.932 -126.512 -99.5863 0.104134 0.994563 1 0.5 0 1
16 1 16.1234 51.1691 0 -63.1426 -28.0969 0 -207.684 220.117 70.3656 -19.5763 -0.719557 -0.694434 1 0.5 0 1
17 1 41.4108 41.9856 0 120.677 121.252 0 76.6303 -393.498 -163.998 56.9583 0.527535 -0.849534 1 0.5 0 1
18 1 73.5371 73.2468 0 -5.72892 -6.01921 0 460.923 -78.0647 -27.1201 91.3773 0.967144 -0.254231 1 0.5 0 1
19 1 3.63488 43.5745 0 3.63488 43.5745 0 -478.262 235.27 88.7549 20.4929 0.550314 0.834958 1 0.5 0 1
20 1 20.3417 58.197 0 20.3417 58.197 0 -131.463 513.379 15.2175 -18.9484 0.823863 -0.566789 1 0.5 0 1
21 1 1.40302 29.0379 0 1.40302 29.0379 0 475.063 -473.447 -77.3413 115.103 -0.63916 0.769074 1 0.5 0 1
22 1 79.0549 22.207 0 79.0549 22.207 0 306.166 -546.282 143.632 -28.0884 -0.399422 -0.916767 1 0.5 0 1
23 1 41.5509 46.8449 0 120.817 46.8449 0 196.867 512.485 98.7213 -3.62117 -0.195988 -0.980606 1 0.5 0 1
24 1 67.0167 58.3158 0 67.0167 -20.9502 0 -257.258 657.268 -19.6291 97.8253 0.682182 -0.731182 1 0.5 0 1
25 1 46.4189 30.7387 0 -32.8471 -48.5273 0 364.157 -830.231 -100.653 72.7513 0.724118 -0.689676 1 0.5 0 1
26 1 52.968 63.6431 0 52.968 -94.8889 0 -1111.85 663.627 -23.8556 8.68095 -0.671257 0.741225 1 0.5 0 1
27 1 72.3851 20.1079 0 -6.8809 99.3739 0 -139.403 -1420.92 -25.8366 247.023 -0.194433 -0.980916 1 0.5 0 1
28 1 6.7512 72.2239 0 6.7512 72.2239 0 -222.561 251.234 -34.9134 5.47013 -0.739194 0.673493 1 0.5 0 1
29 1 73.9175 39.7286 0 -5.34848 39.7286 0 61.0184 696.801 -27.2888 110.274 -0.640295 -0.768129 1 0.5 0 1
30 1 2.05134 12.4685 0 81.3173 91.7345 0 -565.467 591.969 21.8867 6.98499 0.195321 0.980739 1 0.5 0 1
31 1 72.2634 27.4389 0 -7.00263 27.4389 0 156.274 516.692 70.8748 -138.884 0.251363 0.967893 1 0.5 0 1
32 1 1.68896 18.2549 0 1.68896 18.2549 0 -59.3637 -460.931 18.7584 278.181 0.648636 -0.761099 1 0.5 0 1
33 1 65.6235 59.7747 0 65.6235 -19.4913 0 38.2862 162.701 -130.196 -110.897 0.478317 -0.878187 1 0.5 0 1
34 1 6.8378 48.2104 0 86.1038 48.2104 0 431.924 -182.882 -78.8732 -69.1624 0.329116 0.94429 1 0.5 0 1
35 1 42.5096 38.8028 0 -36.7564 38.8028 0 692.118 1093.95 -128.129 -339.451 -0.598407 0.801192 1 0.5 0 1
36 1 60.2668 60.032 0 60.2668 -19.234 0 -289.136 -269.198 68.1995 70.5947 -0.308257 0.951303 1 0.5 0 1
37 1 69.5664 43.8632 0 69.5664 43.8632 0 -41.1968 309.921 -9.87777 85.4903 -0.808636 0.58831 1 0.5 0 1
38 1 0.254789 13.7625 0 158.787 93.0285 0 -150.525 764.835 172.34 135.253 0.976077 -0.217427 1 0.5 0 1
39 1 7.86031 25.57 0 87.1263 -53.696 0 -631.736 615.89 159.055 -73.2657 0.703815 -0.710384 1 0.5 0 1
40 1 55.8557 18.4052 0 -23.4103 97.6712 0 248.213 -32.0339 59.0253 211.096 0.559786 0.828637 1 0.5 0 1
41 1 69.5422 53.6355 0 69.5422 53.6355 0 370.794 116.045 -183.96 -150.547 0.880173 -0.474653 1 0.5 0 1
42 1 75.7474 60.876 0 -3.51856 60.876 0 -412.699 153.271 68.7994 -83.6812 0.514931 -0.857232 1 0.5 0 1
43 1 77.9737 16.1626 0 -80.5583 95.4286 0 -149.113 513.035 -92.6145 90.347 -0.31497 -0.949102 1 0.5 0 1
44 1 63.6805 21.0644 0 63.6805 100.33 0 417.748 -756.369 -15.1749 -80.5324 0.96047 0.278383 1 0.5 0 1
45 1 19.1456 64.0524 0 19.1456 -94.4796 0 388.996 -585.522 -39.5024 0.849775 -0.569501 -0.82199 1 0.5 0 1
46 1 4.87161 44.9176 0 4.87161 44.9176 0 -186.456 652.582 -35.8132 52.0589 -0.0156506 -0.999878 1 0.5 0 1
47 1 59.1022 62.4337 0 59.1022 -16.8323 0 149.643 171.004 -41.469 -101.281 -0.898658 0.438649 1 0.5 0 1
48 1 13.0125 46.6398 0 13.0125 46.6398 0 -90.6683 744.552 -37.9164 -96.9986 0.851601 -0.524191 1 0.5 0 1
49 1 41.731 56.4121 0 41.731 56.4121 0 1018.35 601.504 -20.9325 -57.1385 0.957948 -0.286942 1 0.5 0 1
50 1 54.8254 18.1118 0 -24.4406 18.1118 0 704.569 386.36 34.8998 -26.0844 0.82309 0.567911 1 0.5 0 1
51 1 43.6729 65.7904 0 -114.859 -13.4756 0 761.171 -109.054 -22.2103 -45.0151 -0.355057 -0.934845 1 0.5 0 1
52 1 1.83913 33.6419 0 81.1051 33.6419 0 541.278 123.559 -427.146 103.792 0.999072 -0.0430755 1 0.5 0 1
53 1 14.601 56.4094 0 14.601 135.675 0 218.952 -30.233 -3.39832 61.188 -0.494684 -0.869073 1 0.5 0 1
54 1 52.0102 31.2673 0 52.0102 31.2673 0 -457.932 -94.739 69.5499 132.032 -0.305122 0.952313 1 0.5 0 1
55 1 15.3418 42.6118 0 94.6078 121.878 0 -268.322 -513.832 -148.607 -117.555 0.184086 -0.98291 1 0.5 0 1
56 1 41.827 40.3294 0 41.827 40.3294 0 102.687 339.336 11.4939 -75.6954 -0.410386 0.911912 1 0.5 0 1
57 1 8.88002 16.1537 0 8.88002 95.4197 0 544.567 849.613 -46.3529 -51.7831 -0.878487 -0.477766 1 0.5 0 1
58 1 65.6217 29.0508 0 -13.6443 29.0508 0 -73.1747 678.492 -187.913 60.0252 -0.934707 0.355418 1 0.5 0 1
59 1 51.4482 35.6789 0 51.4482 35.6789 0 -486.106 269.002 -81.6095 -67.7926 0.493701 -0.869632 1 0.5 0 1
60 1 55.954 42.4219 0 55.954 42.4219 0 945.07 -29.1573 -83.3198 -27.8788 0.645984 -0.763351 1 0.5 0 1
61 1 58.5823 45.8995 0 58.5823 45.8995 0 59.0017 -5.79329 -27.3436 -24.2115 -0.167658 -0.985845 1 0.5 0 1
62 1 55.0961 19.1148 0 134.362 19.1148 0 -59.2016 -328.13 -108.476 -143.07 0.481873 -0.876241 1 0.5 0 1
63 1 15.5335 62.801 0 -63.7325 -16.465 0 244.588 489.474 31.5442 -228.926 0.0764641 0.997072 1 0.5 0 1
64 1 18.12 34.2072 0 97.386 113.473 0 231.997 -37.099 -36.9171 29.6746 -0.996779 -0.0801937 1 0.5 0 1
65 1 42.3927 33.6688 0 200.925 112.935 0 225.105 380.147 76.5215 -101.195 -0.176002 0.98439 1 0.5 0 1
66 1 14.322 45.1187 0 93.588 124.385 0 610.181 -192.884 101.057 -6.2615 0.971848 -0.235609 1 0.5 0 1
67 1 53.7754 44.5518 0 53.7754 44.5518 0 33.2808 -694.707 -104.234 -29.0716 -0.638298 -0.769789 1 0.5 0 1
68 1 13.6292 40.5888 0 13.6292 40.5888 0 -274.264 52.3769 220.85 -67.2975 0.496831 -0.867847 1 0.5 0 1
69 1 53.0537 21.4065 0 53.0537 21.4065 0 580.248 -482.662 -208.38 109.143 0.864703 0.502284 1 0.5 0 1
70 1 48.0141 39.2524 0 48.0141 118.518 0 -623.505 -425.568 164.333 33.5554 -0.712241 -0.701935 1 0.5 0 1
71 1 56.4365 16.8335 0 135.703 16.8335 0 -211.724 -374.144 48.1734 -84.5766 0.686265 0.727352 1 0.5 0 1
72 1 7.66192 60.2306 0 7.66192 60.2306 0 -313.572 -296.304 -16.4293 -93.1403 0.213804 -0.976877 1 0.5 0 1
73 1 3.287 14.8996 0 3.287 14.8996 0 833.64 -379.792 -16.8157 11.4345 0.00228238 -0.999997 1 0.5 0 1
74 1 56.48 21.4255 0 56.48 100.691 0 21.8031 131.377 -14.4045 57.317 0.285188 -0.958472 1 0.5 0 1
75 1 75.6254 39.2999 0 -3.64062 39.2999 0 561.836 290.693 -8.58474 55.8107 0.694006 -0.719969 1 0.5 0 1
76 1 17.3851 34.926 0 -61.8809 34.926 0 7.59866 -120.964 17.862 22.6017 -0.784863 0.619669 1 0.5 0 1
77 1 77.078 35.2115 0 -2.18802 35.2115 0 -239.723 857.34 13.5909 169.13 0.855966 -0.517032 1 0.5 0 1
78 1 59.1501 73.6165 0 59.1501 73.6165 0 179.936 335.032 -86.0751 -0.784301 -0.302829 -0.953045 1 0.5 0 1
79 1 45.3397 56.0878 0 -33.9263 56.0878 0 233.468 612.296 7.93411 24.1928 0.957316 0.289043 1 0.5 0 1
80 1 77.5222 27.1816 0 -1.74376 -52.0844 0 715.806 497.94 -222.96 -244.63 -0.428782 -0.903408 1 0.5 0 1
81 1 47.2172 36.3323 0 126.483 36.3323 0 -458.727 -914.573 160.352 82.8845 0.912396 0.409308 1 0.5 0 1
82 1 0.942959 39.8328 0 0.942959 39.8328 0 317.314 16.9204 -159.324 -32.8865 0.170717 0.98532 1 0.5 0 1
83 1 42.3425 42.3357 0 121.609 121.602 0 -207.641 581.102 235.646 -67.7748 -0.794964 0.606656 1 0.5 0 1
84 1 77.1949 45.2282 0 -2.07108 45.2282 0 -137.416 120.702 8.0768 -113.373 -0.79792 0.602764 1 0.5 0 1
85 1 55.1778 71.5869 0 -24.0882 -7.67911 0 -488.991 486.651 9.03289 -103.117 -0.122541 -0.992463 1 0.5 0 1
86 1 10.2382 41.6932 0 10.2382 41.6932 0 300.978 467.097 -30.8108 -236.665 -0.586392 -0.810028 1 0.5 0 1
87 1 8.93079 43.1856 0 8.93079 43.1856 0 290.029 -389.471 4.51653 147.647 0.979141 -0.20318 1 0.5 0 1
88 1 19.0175 33.6478 0 19.0175 33.6478 0 -1237.25 288.999 8.30327 58.4245 -0.433216 0.90129 1 0.5 0 1
89 1 22.6403 50.5938 0 22.6403 -28.6722 0 228.57 419.474 -18.6355 -38.8464 -0.689479 -0.724306 1 0.5 0 1
90 1 4.07751 38.9702 0 4.07751 38.9702 0 -682.859 -500.569 69.1601 293.111 -0.817458 0.575988 1 0.5 0 1
91 1 19.3213 57.9007 0 19.3213 -21.3653 0 -618.004 555.511 88.3713 -24.0377 0.911403 -0.411516 1 0.5 0 1
92 1 6.39321 58.1518 0 6.39321 58.1518 0 137.42 532.239 54.2321 41.5494 0.633256 0.773942 1 0.5 0 1
93 1 2.13142 48.6645 0 2.13142 48.6645 0 331.531 -689.267 -29.1833 222.939 -0.638666 0.769484 1 0.5 0 1
94 1 69.7928 37.6104 0 69.7928 37.6104 0 -367.482 806.014 -93.0918 -156.902 0.672452 -0.74014 1 0.5 0 1
95 1 66.8603 50.2204 0 66.8603 50.2204 0 473.753 -123.534 190.075 -191.194 0.829395 0.558662 1 0.5 0 1
96 1 53.5488 43.5688 0 53.5488 43.5688 0 -184.952 -665.647 78.6029 72.811 0.5129 -0.858448 1 0.5 0 1
97 1 57.9038 69.4357 0 57.9038 -89.0963 0 -920.974 867.83 6.13341 -39.8969 -0.389581 -0.920992 1 0.5 0 1
98 1 17.7773 50.6489 0 17.7773 50.6489 0 -454.79 -69.3173 171.871 -171.847 -0.994348 -0.106172 1 0.5 0 1
99 1 44.8814 41.2858 0 44.8814 -37.9802 0 -166.286 253.233 -122.522 80.0035 0.998739 -0.0502037 1 0.5 0 1
100 1 72.5248 44.6322 0 72.5248 44.6322 0 116.128 -558.685 93.1381 204.023 0.675224 -0.737612 1 0.5 0 1
101 1 49.716 49.8506 0 49.716 -29.4154 0 656.503 -115.211 288.055 58.8825 0.968626 0.248525 1 0.5 0 1
102 1 78.606 43.9022 0 -0.659997 43.9022 0 64.9202 -382.432 -102.561 -86.3787 -0.81226 -0.583295 1 0.5 0 1
103 1 24.8871 50.9802 0 -133.645 130.246 0 213.323 203.411 -76.1137 -40.9623 -0.705614 -0.708597 1 0.5 0 1
104 1 53.026 45.2707 0 53.026 124.537 0 47.1946 -317.081 14.3744 -176.215 0.882987 0.469397 1 0.5 0 1
105 1 39.3948 37.191 0 39.3948 37.191 0 -26.9932 -50.9185 54.8992 11.3273 0.980484 -0.196601 1 0.5 0 1
106 1 18.0515 36.9017 0 18.0515 -42.3643 0 188.618 135.388 47.8029 -119.447 -0.910542 0.413416 1 0.5 0 1
107 1 61.1515 38.4138 0 61.1515 38.4138 0 831.209 370.867 82.6145 73.0195 0.986723 -0.162412 1 0.5 0 1
108 1 78.6448 37.4655 0 -0.621219 116.732 0 -619.056 138.099 48.1994 -96.3642 -0.109882 -0.993945 1 0.5 0 1
109 1 38.2442 41.1451 0 -41.0218 120.411 0 -436.349 -452.539 -42.3703 -57.3464 0.899146 -0.437648 1 0.5 0 1
110 1 49.6389 32.3916 0 49.6389 32.3916 0 -415.656 614.505 -88.1148 -142.688 -0.257902 0.966171 1 0.5 0 1
111 1 73.0132 14.7792 0 73.0132 94.0452 0 -1069.34 132.554 111.637 -52.2908 -0.469504 0.88293 1 0.5 0 1
112 1 12.1279 50.8741 0 12.1279 50.8741 0 -197.814 989.169 55.1388 85.2961 -0.445459 0.895302 1 0.5 0 1
113 1 16.3242 26.7299 0 -62.9418 105.996 0 68.8333 466.489 -55.3196 -81.6673 -0.823537 -0.567262 1 0.5 0 1
114 1 54.0943 56.4866 0 54.0943 56.4866 0 635.837 521.418 105.33 -201.49 0.976819 -0.214065 1 0.5 0 1
115 1 42.5436 47.1489 0 42.5436 -32.1171 0 -181.834 682.242 26.9257 34.3287 0.955395 0.29533 1 0.5 0 1
116 1 58.1579 70.4599 0 58.1579 -88.0721 0 138.643 -81.7625 -60.4778 -5.32439 0.492642 -0.870232 1 0.5 0 1
117 1 65.167 68.8815 0 65.167 -10.3845 0 672.123 99.6224 -41.5615 72.2686 -0.1096 0.993976 1 0.5 0 1
118 1 54.2877 42.8741 0 54.2877 42.8741 0 330.918 -673.882 41.1025 29.3357 0.974582 -0.22403 1 0.5 0 1
119 1 42.5112 60.5436 0 201.043 -18.7224 0 -612.554 96.1246 66.0878 54.625 0.943607 -0.331068 1 0.5 0 1
120 1 45.2559 53.3131 0 124.522 -25.9529 0 -912.236 -997.402 200.528 191.697 -0.886884 -0.461992 1 0.5 0 1
121 1 59.1496 70.7503 0 -99.3824 -8.51566 0 -721.541 -502.968 77.387 -24.0433 0.502348 -0.864665 1 0.5 0 1
122 1 39.6033 29.7905 0 39.6033 109.056 0 56.0547 13.7981 34.4487 -20.5307 0.791879 -0.610679 1 0.5 0 1
123 1 72.7138 32.115 0 -6.55216 32.115 0 188.856 897.709 138.758 -28.7009 0.653939 0.756547 1 0.5 0 1
124 1 21.0964 34.8918 0 -58.1696 -44.3742 0 123.192 310.801 -42.9045 -56.3275 -0.245815 -0.969317 1 0.5 0 1
125 1 63.9856 29.4693 0 63.9856 29.4693 0 -304.102 -514.996 -236.978 154.686 -0.991724 0.128391 1 0.5 0 1
126 1 7.84457 36.5511 0 87.1106 115.817 0 3.86171 -921.939 280.047 -13.7856 0.978345 0.206981 1 0.5 0 1
127 1 56.5955 31.8054 0 56.5955 111.071 0 532.927 95.9065 57.1633 -118.092 0.862064 0.506799 1 0.5 0 1
128 1 0.671306 26.123 0 -78.5947 26.123 0 182.079 -176.146 -11.6963 103.143 -0.958778 -0.284155 1 0.5 0 1
129 1 68.6836 57.9442 0 68.6836 -21.3218 0 508.018 -53.1946 -170.979 30.6767 -0.455379 0.890298 1 0.5 0 1
130 1 74.6669 57.0124 0 74.6669 -22.2536 0 182.539 -801.095 39.9594 19.9037 -0.789779 0.613391 1 0.5 0 1
131 1 2.0829 71.0244 0 2.0829 71.0244 0 -564.271 203.576 49.7364 -28.7984 -0.133419 -0.99106 1 0.5 0 1
132 1 58.8236 33.3437 0 -20.4424 112.61 0 -903.239 -221.469 -23.7077 -165.719 0.98414 0.177394 1 0.5 0 1
133 1 16.5561 52.1938 0 16.5561 131.46 0 6.23959 271.832 -101.579 -17.125 -0.825856 -0.563881 1 0.5 0 1
134 1 11.3127 39.2782 0 11.3127 39.2782 0 -311.82 438.575 26.7922 -170.818 0.564477 -0.825449 1 0.5 0 1
135 1 20.6022 4.98727 0 20.6022 163.519 0 -190.271 138.308 5.02854 90.6228 0.185397 0.982664 1 0.5 0 1
136 1 33.7111 34.8809 0 112.977 193.413 0 225.437 484.904 72.7094 52.591 0.322066 0.946717 1 0.5 0 1
137 1 39.5987 46.2499 0 118.865 46.2499 0 -376.281 193.996 -46.2267 -26.6002 0.999214 0.0396467 1 0.5 0 1
138 1 49.4474 55.1844 0 -29.8186 -24.0816 0 649.303 230.955 171.639 85.1271 0.434544 0.900651 1 0.5 0 1
139 1 44.7287 44.9918 0 44.7287 -34.2742 0 524.356 -309.793 9.57209 -121.552 -0.414873 -0.909879 1 0.5 0 1
140 1 2.9538 13.9428 0 2.9538 13.9428 0 -115.828 -931.821 -112.397 -3.0456 -0.917606 0.39749 1 0.5 0 1
141 1 12.8351 58.886 0 12.8351 58.886 0 -119.986 -543.899 187.808 -38.1434 0.810981 -0.585072 1 0.5 0 1
142 1 21.2518 44.105 0 -58.0142 123.371 0 -54.5989 216.624 109.689 123.612 -0.703765 0.710433 1 0.5 0 1
143 1 9.7949 37.088 0 9.7949 116.354 0 913.506 -489.791 25.3578 203.838 0.462983 0.886367 1 0.5 0 1
144 1 36.996 4.19241 0 36.996 4.19241 0 -315.918 329.426 81.4188 -58.0601 0.814188 -0.580601 1 0.5 0 1
145 1 17.4359 64.7027 0 96.7019 64.7027 0 -444.085 -520.178 -38.5079 119.718 -0.220309 -0.97543 1 0.5 0 1
146 1 61.338 63.9872 0 61.338 -15.2788 0 325.077 -37.8633 -80.4628 -69.4316 0.959611 -0.28133 1 0.5 0 1
147 1 2.17065 67.7156 0 81.4367 -11.5504 0 -148.49 -293.661 93.9212 22.1844 -0.824185 0.56632 1 0.5 0 1
148 1 43.7177 70.2387 0 122.984 70.2387 0 -619.775 796.286 -92.7604 37.3565 -0.927604 0.373565 1 0.5 0 1
149 1 70.1099 32.2869 0 70.1099 111.553 0 -252.438 -340.072 -8.80804 -38.4968 -0.507289 0.861776 1 0.5 0 1
150 1 66.22 37.371 0 -13.046 37.371 0 -93.6644 67.099 -9.74729 -168.543 0.980458 -0.196729 1 0.5 0 1
151 1 5.12648 57.6321 0 84.3925 -21.6339 0 36.4872 24.818 -77.7277 6.61377 -0.525667 -0.85069 1 0.5 0 1
152 1 64.6478 66.8464 0 64.6478 66.8464 0 -175.041 -639.691 -32.7026 210.889 -0.290891 -0.956756 1 0.5 0 1
153 1 77.4704 60.278 0 77.4704 60.278 0 -277.161 115.646 43.6775 -84.575 0.856082 -0.51684 1 0.5 0 1
154 1 4.49768 52.2968 0 4.49768 52.2968 0 637.826 172.542 53.7171 116.738 -0.16282 0.986656 1 0.5 0 1
155 1 70.7225 69.4146 0 -87.8095 -9.85139 0 42.1599 368.906 -3.76888 3.9522 -0.349209 0.937045 1 0.5 0 1
156 1 74.5942 48.8076 0 74.5942 48.8076 0 -931 -854.91 118.94 -42.3638 -0.79424 -0.607604 1 0.5 0 1
157 1 3.7052 30.6086 0 3.7052 30.6086 0 473.744 -325.401 -77.7923 -15.6448 0.985965 -0.166955 1 0.5 0 1
158 1 66.9208 40.3129 0 -12.3452 40.3129 0 256.05 -342.114 139.26 -41.0512 0.964739 0.263209 1 0.5 0 1
159 1 5.08508 17.0984 0 5.08508 96.3644 0 -419.118 185.428 45.0841 87.0923 -0.194366 0.980929 1 0.5 0 1
160 1 61.3605 14.4736 0 61.3605 14.4736 0 494.387 345.672 -13.9278 -55.5537 0.978182 0.207749 1 0.5 0 1
161 1 5.82775 12.7979 0 5.82775 -66.4681 0 -144.473 -627.486 28.3741 38.6966 -0.549392 0.835565 1 0.5 0 1
162 1 8.06259 54.7592 0 8.06259 54.7592 0 -485.127 758.46 183.239 185.598 -0.16595 -0.986134 1 0.5 0 1
163 1 63.4643 50.9677 0 63.4643 50.9677 0 599.231 -160.669 -150.305 -94.1217 0.997052 -0.0767282 1 0.5 0 1
164 1 58.9154 65.0726 0 58.9154 -14.1934 0 -839.438 -397.932 249.026 -171.438 0.996783 0.0801488 1 0.5 0 1
165 1 52.6835 17.5451 0 52.6835 96.8111 0 -499.16 79.8811 62.719 -2.15773 0.947486 0.319798 1 0.5 0 1
166 1 9.97691 46.0825 0 9.97691 46.0825 0 -108.097 -393.049 -62.0479 170.152 0.546954 0.837163 1 0.5 0 1
167 1 63.3071 30.179 0 63.3071 30.179 0 515.585 -95.414 46.3113 -255.792 0.293037 -0.956101 1 0.5 0 1
168 1 15.8066 65.4288 0 -63.4594 65.4288 0 168.388 160.26 84.4011 3.99388 0.92192 -0.387381 1 0.5 0 1
169 1 24.0535 54.4756 0 -55.2125 133.742 0 -438.335 -372.889 -39.1028 112.254 -0.997839 -0.0657106 1 0.5 0 1
170 1 44.7986 72.1013 0 124.065 151.367 0 567.252 229.082 57.2466 81.9929 0.572466 0.819929 1 0.5 0 1
171 1 61.7777 69.7452 0 141.044 -9.52076 0 -90.0226 721.059 -82.9085 -52.7122 0.999219 -0.0395135 1 0.5 0 1
172 1 11.2742 59.6727 0 11.2742 -19.5933 0 367.938 203.609 -87.8826 18.5109 0.939658 -0.342115 1 0.5 0 1
173 1 51.364 19.1694 0 51.364 -60.0966 0 72.9789 -420.066 80.9197 -49.1398 0.925935 0.377684 1 0.5 0 1
174 1 11.4016 53.486 0 11.4016 53.486 0 218.639 504.532 46.9761 -182.804 -0.866552 0.499087 1 0.5 0 1
175 1 58.2763 71.631 0 -20.9897 -7.63496 0 -570.228 172.288 30.713 -37.7467 0.915018 0.403414 1 0.5 0 1
176 1 12.5948 51.8085 0 12.5948 51.8085 0 79.2451 205.092 5.52266 41.85 0.691455 0.72242 1 0.5 0 1
177 1 5.13557 67.6039 0 5.13557 67.6039 0 298.941 -197.145 -81.0708 -77.8937 -0.0837151 -0.99649 1 0.5 0 1
178 1 56.1091 29.8058 0 -23.1569 109.072 0 -393.396 223.436 -16.9186 211.351 -0.987634 0.156778 1 0.5 0 1
179 1 6.34124 59.1801 0 6.34124 -20.0859 0 226.34 247.708 -62.4794 -151.817 0.574718 0.818351 1 0.5 0 1
180 1 73.7484 42.3259 0 73.7484 42.3259 0 -101.581 347.994 -25.2551 -196.26 0.104004 -0.994577 1 0.5 0 1
181 1 6.15402 11.6428 0 85.42 11.6428 0 150.5 -214.631 -41.3233 104.62 0.946272 0.323373 1 0.5 0 1
182 1 5.3252 70.9327 0 -73.9408 70.9327 0 -15.2928 -204.134 -52.0526 -4.6203 -0.467041 -0.884236 1 0.5 0 1
183 1 59.0342 58.7752 0 59.0342 -20.4908 0 63.0998 484.413 117.8 107.245 -0.74197 -0.670433 1 0.5 0 1
184 1 63.3418 43.7055 0 63.3418 43.7055 0 187.675 -128.607 -159.729 -175.679 0.0785242 -0.996912 1 0.5 0 1
185 1 56.7074 17.8419 0 -22.5586 17.8419 0 287.685 47.8786 -105.453 40.5621 0.596614 0.802529 1 0.5 0 1
186 1 20.2365 43.8809 0 -59.0295 123.147 0 -104.983 149.552 22.5593 -96.1859 -0.573117 0.819474 1 0.5 0 1
187 1 55.0235 35.8947 0 -24.2425 115.161 0 -171.664 -286.043 -49.8021 -104.424 0.10153 0.994832 1 0.5 0 1
188 1 64.2014 15.6422 0 143.467 94.9082 0 701.06 -387.238 -105.666 -112.181 0.55466 0.832077 1 0.5 0 1
189 1 14.2881 19.759 0 14.2881 99.025 0 299.338 -734.852 69.6732 71.7332 0.696732 0.717332 1 0.5 0 1
190 1 22.334 52.3205 0 -56.932 52.3205 0 49.7692 304.092 -9.76142 -12.7395 0.0789524 -0.996878 1 0.5 0 1
191 1 79.1751 77.5107 0 158.441 -1.75533 0 -129.139 -625.524 103.381 50.9902 0.989047 -0.147604 1 0.5 0 1
192 1 58.4899 38.5697 0 58.4899 38.5697 0 375.596 -197.091 94.6103 -135.319 0.00541494 -0.999985 1 0.5 0 1
193 1 75.7438 13.4943 0 -3.52217 92.7603 0 -131.152 -498.864 -107.838 174.834 0.0641636 0.997939 1 0.5 0 1
194 1 10.2815 20.3156 0 10.2815 -58.9504 0 64.9049 -58.6423 -72.7523 -66.5643 -0.596387 -0.802697 1 0.5 0 1
195 1 52.9807 31.5942 0 52.9807 31.5942 0 132.702 805.157 -29.1937 54.0385 0.222874 0.974847 1 0.5 0 1
196 1 58.5527 42.2237 0 58.5527 42.2237 0 391.116 461.709 -9.52891 109.989 0.900416 0.43503 1 0.5 0 1
197 1 72.5476 62.1552 0 -6.71841 62.1552 0 -544.035 -842.486 -171.145 80.7108 0.902146 -0.431431 1 0.5 0 1
198 1 73.767 45.9064 0 73.767 45.9064 0 256.892 13.0683 34.1158 -181.752 -0.764349 0.644803 1 0.5 0 1
199 1 68.3528 70.758 0 -10.9132 -8.50803 0 37.3784 104.126 73.6728 36.1553 0.0539629 -0.998543 1 0.5 0 1
200 1 0.758964 17.8959 0 80.025 97.1619 0 -448.61 590.045 -45.1365 -16.4085 0.289041 0.957317 1 0.5 0 1
201 1 64.8701 11.1484 0 -14.3959 90.4144 0 -417.219 -836.651 38.5656 -10.3282 0.374878 0.927074 1 0.5 0 1
202 1 56.8912 60.9404 0 -22.3748 -18.3256 0 190.545 -21.6579 87.7155 -87.5351 0.757172 0.653216 1 0.5 0 1
203 1 16.9972 42.0832 0 -62.2688 121.349 0 -524.169 604.306 101.029 -161.862 -0.725815 -0.68789 1 0.5 0 1
204 1 65.8402 64.4175 0 65.8402 -14.8485 0 -349.643 113.201 -30.3844 77.154 0.182006 -0.983297 1 0.5 0 1
205 1 48.3863 22.5045 0 48.3863 101.771 0 862.864 -735.119 54.7774 74.3659 -0.129626 0.991563 1 0.5 0 1
206 1 5.31993 63.6972 0 5.31993 -15.5688 0 137.15 487.945 -147.965 -88.4065 -0.645747 0.763551 1 0.5 0 1
207 1 60.6276 64.6654 0 60.6276 64.6654 0 -7.29059 220.512 -11.7301 -62.6372 0.975333 -0.220736 1 0.5 0 1
208 1 8.11753 33.8605 0 8.11753 33.8605 0 -375.72 -190.33 117.683 -32.3678 0.99828 0.0586339 1 0.5 0 1
209 1 52.2739 28.6173 0 52.2739 107.883 0 446.819 -99.3493 -212.636 97.7512 0.608349 -0.79367 1 0.5 0 1
210 1 67.2744 63.0527 0 -11.9916 63.0527 0 -466.705 246.209 -7.14069 -237.693 -0.17349 0.984836 1 0.5 0 1
211 1 60.6689 43.7424 0 60.6689 43.7424 0 212.988 303.635 192.917 -84.1123 0.605851 -0.795578 1 0.5 0 1
212 1 21.4679 47.8279 0 180 47.8279 0 580.23 -558.029 70.7224 -93.2295 0.219911 0.97552 1 0.5 0 1
213 1 69.7706 66.492 0 69.7706 66.492 0 -82.1927 874.929 78.7481 -71.8153 -0.401439 -0.915886 1 0.5 0 1
214 1 41.7633 27.7682 0 41.7633 27.7682 0 435.767 -571.243 -63.1331 133.867 0.992495 -0.122282 1 0.5 0 1
215 1 55.4322 62.3646 0 55.4322 -16.9014 0 -212.564 238.536 1.76569 122.185 0.120796 0.992677 1 0.5 0 1
216 1 15.9022 47.4753 0 15.9022 126.741 0 618.189 31.3399 -151.972 12.3885 0.752385 0.658723 1 0.5 0 1
217 1 35.8886 70.5743 0 194.421 70.5743 0 177.946 73.6638 97.2683 -23.2136 0.972683 -0.232136 1 0.5 0 1
218 1 46.6242 51.8062 0 46.6242 51.8062 0 -205.548 681.495 83.3578 -138.432 -0.82294 -0.568129 1 0.5 0 1
219 1 53.2707 46.2137 0 53.2707 46.2137 0 -115.226 -58.8634 -53.862 132.878 -0.274864 -0.961483 1 0.5 0 1
220 1 64.2174 68.5855 0 64.2174 -89.9465 0 -98.0137 445.552 -174.246 115.561 0.853276 -0.52146 1 0.5 0 1
221 1 44.5915 60.69 0 -34.6745 139.956 0 -594.471 561.795 35.562 -79.9786 -0.253926 -0.967224 1 0.5 0 1
222 1 42.6842 30.8471 0 42.6842 30.8471 0 64.2447 -280.302 140.117 5.6199 0.934335 -0.356396 1 0.5 0 1
223 1 71.7255 38.1738 0 -7.54055 38.1738 0 65.7007 -582.264 -52.0451 -344.461 0.908282 -0.418358 1 0.5 0 1
224 1 77.1579 61.9725 0 -2.1081 61.9725 0 174.451 226.044 3.61609 -248.724 0.423163 -0.906054 1 0.5 0 1
225 1 12.2526 24.7086 0 91.5186 -54.5574 0 -243.432 -844.424 -46.7699 -28.8868 -0.936471 0.350744 1 0.5 0 1
226 1 23.7426 39.8519 0 -55.5234 -39.4141 0 172.529 690.826 -32.4315 7.92584 -0.587524 -0.809207 1 0.5 0 1
227 1 1.27661 38.0202 0 80.5426 38.0202 0 -436.718 -553.514 -55.2508 -12.1374 -0.404654 -0.91447 1 0.5 0 1
228 1 18.2708 62.1259 0 -60.9952 -17.1401 0 -595.979 -307.76 33.3102 -22.8315 -0.227105 -0.97387 1 0.5 0 1
229 1 51.3878 42.0731 0 51.3878 42.0731 0 -524.118 -408.301 24.3876 5.38003 -0.413581 -0.910467 1 0.5 0 1
230 1 51.7966 40.397 0 51.7966 119.663 0 -722.263 -416.899 192.373 148.114 -0.959964 0.280123 1 0.5 0 1
231 1 3.11049 25.112 0 3.11049 104.378 0 -209.755 -115.151 139.147 117.084 -0.48598 0.87397 1 0.5 0 1
232 1 46.2534 28.8246 0 46.2534 -50.4414 0 -52.9853 572.111 51.423 141.335 0.504765 0.863257 1 0.5 0 1
233 1 8.64738 47.6881 0 8.64738 47.6881 0 -652.767 -528.99 135.448 49.0294 0.744564 0.667552 1 0.5 0 1
234 1 66.9554 11.7177 0 66.9554 11.7177 0 153.653 138.513 -71.1823 20.2284 -0.996536 -0.0831603 1 0.5 0 1
235 1 25.2159 49.9656 0 25.2159 129.232 0 7.9545 8.31095 -18.9108 14.2372 -0.481426 0.876487 1 0.5 0 1
236 1 59.8896 76.2449 0 139.156 -3.02111 0 213.455 1172.97 51.2338 85.9829 0.428971 0.903318 1 0.5 0 1
237 1 71.249 72.9147 0 71.249 -6.35126 0 1.78833 -672.921 128.418 105.12 0.348402 -0.937345 1 0.5 0 1
238 1 67.4705 22.2839 0 67.4705 101.55 0 34.2987 351.507 75.1169 -81.1467 0.800525 0.599299 1 0.5 0 1
239 1 2.91382 44.2349 0 82.1798 44.2349 0 742.212 -270.897 1.46741 19.7211 0.483783 -0.875188 1 0.5 0 1
240 1 70.9826 17.8022 0 70.9826 17.8022 0 -181.187 -189.13 176.83 120.936 0.37842 -0.925634 1 0.5 0 1
241 1 47.7725 38.2617 0 47.7725 38.2617 0 -469.486 750.534 116.411 -10.3385 0.984904 -0.1731 1 0.5 0 1
242 1 10.5353 65.1366 0 89.8013 -14.1294 0 -437.248 -168.832 78.2153 142.468 0.938608 -0.344985 1 0.5 0 1
243 1 48.5506 72.4295 0 -109.981 72.4295 0 -1012.5 -308.407 -94.1401 -33.7289 -0.941401 -0.337289 1 0.5 0 1
244 1 59.3421 25.2346 0 59.3421 104.501 0 -640.209 228.496 92.8591 54.1621 -0.241615 -0.970372 1 0.5 0 1
245 1 56.765 52.6412 0 56.765 52.6412 0 133.956 147.074 -221.045 -66.5768 -0.461192 -0.8873 1 0.5 0 1
246 1 48.9784 43.2665 0 48.9784 43.2665 0 510.105 960.538 18.9781 -181.549 0.75725 -0.653125 1 0.5 0 1
247 1 68.0439 54.9929 0 68.0439 -24.2731 0 501.126 52.3271 -77.9369 -178.973 -0.31704 -0.948412 1 0.5 0 1
248 1 75.5103 77.5846 0 -3.75571 -1.6814 0 -184.642 358.182 40.9259 -91.2418 0.409259 -0.912418 1 0.5 0 1
249 1 41.3298 45.8289 0 120.596 -33.4371 0 143.859 676.526 -142.169 -24.028 0.47142 0.881909 1 0.5 0 1
250 1 57.7069 68.4425 0 216.239 68.4425 0 -607.114 -290.281 -73.7369 -57.0988 0.299007 -0.954251 1 0.5 0 1
251 1 62.4567 16.0466 0 62.4567 174.579 0 48.1457 -594.141 -56.555 48.0851 0.90894 0.416926 1 0.5 0 1
252 1 58.4529 22.2745 0 58.4529 101.541 0 -468.267 -127.273 -169.422 -105.631 -0.987101 -0.160098 1 0.5 0 1
253 1 17.4482 49.6591 0 17.4482 49.6591 0 412.129 -508.476 10.5188 95.1571 -0.0963546 -0.995347 1 0.5 0 1
254 1 46.9673 35.3509 0 46.9673 114.617 0 457.753 -951.799 -53.6653 72.9271 0.998939 -0.0460423 1 0.5 0 1
255 1 0.427437 35.0511 0 79.6934 114.317 0 -479.703 244.666 187.037 90.9801 0.339755 0.940514 1 0.5 0 1
256 1 68.5597 43.6128 0 -10.7063 43.6128 0 -644.689 -107.776 83.9985 -127.085 -0.292777 0.956181 1 0.5 0 1
257 1 6.95642 39.9441 0 6.95642 119.21 0 493.236 204.545 15.4594 95.4217 -0.878197 -0.478299 1 0.5 0 1
258 1 5.91543 28.6121 0 5.91543 -50.6539 0 375.456 594.236 -83.5465 142.077 -0.901133 0.433542 1 0.5 0 1
259 1 17.984 0.545854 0 17.984 0.545854 0 51.6554 -584.283 -17.4184 -98.4713 -0.174184 -0.984713 1 0.5 0 1
260 1 71.5487 71.2517 0 150.815 -8.01428 0 675.172 -846.373 54.8592 -63.1662 0.978847 0.204595 1 0.5 0 1
261 1 9.98989 23.3481 0 9.98989 23.3481 0 738.235 -358.902 46.5052 69.9558 -0.920287 0.391243 1 0.5 0 1
262 1 57.1073 61.9117 0 136.373 -17.3543 0 -171.123 -169.094 144.283 -111.803 -0.827732 -0.561123 1 0.5 0 1
263 1 1.59258 71.908 0 -77.6734 -86.624 0 -173.856 266.913 -114.734 42.7121 0.639546 -0.768753 1 0.5 0 1
264 1 16.0087 36.4305 0 174.541 -42.8355 0 -620.807 782.835 -25.3393 -23.058 -0.913842 -0.40607 1 0.5 0 1
265 1 51.7929 30.2907 0 51.7929 109.557 0 -927.606 220.274 140.284 8.42632 0.952368 0.304953 1 0.5 0 1
266 1 56.2882 54.3817 0 56.2882 54.3817 0 -17.7534 -671.267 -32.4799 -202.531 0.583365 0.81221 1 0.5 0 1
267 1 73.1361 64.1173 0 -6.12992 -15.1487 0 1199.64 -486.025 -52.2771 45.1926 -0.767563 -0.640974 1 0.5 0 1
268 1 67.7798 61.3358 0 67.7798 61.3358 0 381.329 291.515 -13.8048 -39.8851 0.804128 -0.594457 1 0.5 0 1
269 1 50.4442 66.8542 0 129.71 66.8542 0 -289.059 112.416 73.0497 107.816 0.896291 0.443467 1 0.5 0 1
270 1 7.73563 70.2397 0 7.73563 -9.02634 0 428.875 93.5552 -25.7801 20.7019 -0.849734 -0.527212 1 0.5 0 1
271 1 41.7274 13.0205 0 120.993 13.0205 0 715.51 258.767 40.2187 -87.8051 0.881301 -0.472556 1 0.5 0 1
272 1 50.8429 40.1462 0 50.8429 40.1462 0 585.099 190.289 -88.1934 19.809 -0.117302 0.993096 1 0.5 0 1
273 1 60.0936 51.814 0 60.0936 51.814 0 -1175.97 500.004 271.776 -112.793 -0.795595 0.605829 1 0.5 0 1
274 1 22.0625 43.3853 0 101.329 43.3853 0 47.3253 -395.413 -8.16192 -31.6164 -0.598605 0.801044 1 0.5 0 1
275 1 11.622 65.1538 0 90.888 -14.1122 0 578.321 -510.51 89.9601 22.6252 0.919078 -0.394075 1 0.5 0 1
276 1 57.8776 46.6315 0 57.8776 46.6315 0 -845.71 9.82362 206.027 -61.1027 0.916521 0.399987 1 0.5 0 1
277 1 55.5978 68.8162 0 55.5978 -10.4498 0 139.467 972.064 83.9466 66.9964 0.903566 -0.428449 1 0.5 0 1
278 1 9.0647 34.1563 0 -70.2013 113.422 0 318.049 24.0164 98.83 -81.2197 0.0811403 -0.996703 1 0.5 0 1
279 1 17.2495 43.1254 0 96.5155 -115.407 0 670.202 333.32 307.884 6.12959 -0.506742 0.862098 1 0.5 0 1
280 1 2.08558 72.8371 0 -77.1804 -85.6949 0 175.217 530.928 118.041 -49.7569 -0.367557 -0.930001 1 0.5 0 1
281 1 69.3985 57.2575 0 69.3985 57.2575 0 -741.281 497.06 108.01 -48.5654 -0.984604 0.174801 1 0.5 0 1
282 1 48.0504 50.3279 0 48.0504 -28.9381 0 74.632 130.28 14.539 173.914 0.938547 0.345151 1 0.5 0 1
283 1 68.4656 32.6741 0 -10.8004 111.94 0 204.914 122.259 120.778 -208.53 -0.314921 -0.949118 1 0.5 0 1
284 1 4.68954 30.8804 0 4.68954 110.146 0 955.493 -296.324 46.8831 146.859 0.681141 -0.732153 1 0.5 0 1
285 1 64.9562 36.0419 0 64.9562 36.0419 0 676.434 -603.079 -39.9198 211.61 -0.81399 -0.580878 1 0.5 0 1