ITEM: TIMESTEP
180000
ITEM: NUMBER OF ATOMS
4000
ITEM: BOX BOUNDS pp pp pp
0.0000000000000000e+00 7.9266000000000005e+01
0.0000000000000000e+00 7.9266000000000005e+01
-5.0000000000000000e-01 5.0000000000000000e-01
ITEM: ATOMS id type x y z xu yu zu vx vy fx fy mux muy mu radius omegaz mass
1 1 6.55183 68.7829 0 85.8178 68.7829 0 -70.5663 -559.91 11.1942 -99.3715 0.111942 -0.993715 1 0.5 0 1
2 1 19.6886 62.4577 0 19.6886 -16.8083 0 -165.147 200.026 79.3201 62.1982 0.995486 0.0949041 1 0.5 0 1
3 1 31.9595 51.0516 0 31.9595 -28.2144 0 -931.312 -454.608 105.745 46.5928 -0.909286 0.416172 1 0.5 0 1
4 1 52.1339 20.6999 0 52.1339 99.9659 0 144.305 -691.393 -103.065 2.75954 -0.861374 -0.507971 1 0.5 0 1
5 1 8.03391 29.1536 0 8.03391 29.1536 0 293.237 -211.755 -129.387 73.2886 -0.987817 -0.155618 1 0.5 0 1
6 1 75.5914 26.4543 0 -3.67462 26.4543 0 -149.559 125.135 -15.0873 -78.2252 -0.983881 0.178824 1 0.5 0 1
7 1 69.0694 46.6826 0 69.0694 46.6826 0 420.157 622.037 216.255 -134.499 -0.179017 0.983846 1 0.5 0 1
8 1 26.4716 58.3852 0 26.4716 -20.8808 0 -423.91 9.96163 -5.12936 -49.9839 -0.57819 -0.815902 1 0.5 0 1
9 1 67.8053 23.3449 0 67.8053 23.3449 0 1065.54 -827.005 -127.75 435.069 -0.745994 -0.665953 1 0.5 0 1
10 1 27.6589 52.2726 0 27.6589 52.2726 0 97.027 -108.922 -14.3003 91.656 -0.900609 0.434631 1 0.5 0 1
11 1 42.1447 22.5738 0 -37.1213 22.5738 0 403.082 -698.222 19.0207 -5.04426 0.226072 -0.974111 1 0.5 0 1
12 1 3.77667 14.8818 0 83.0427 94.1478 0 486.606 437.277 48.4946 87.4544 0.484946 0.874544 1 0.5 0 1
13 1 30.9082 35.223 0 30.9082 35.223 0 60.5117 256.418 -0.35451 -44.2239 0.614564 -0.788867 1 0.5 0 1
14 1 22.3426 18.8671 0 -56.9234 18.8671 0 -546.238 366.919 -144.325 -38.0521 -0.994806 -0.101791 1 0.5 0 1
15 1 15.1492 35.8628 0 15.1492 35.8628 0 -106.076 169.415 -16.0372 -17.3442 -0.950167 -0.311741 1 0.5 0 1
16 1 38.1053 62.5113 0 -41.1607 -16.7547 0 6.8352 118.158 45.6789 -88.9575 0.456789 -0.889575 1 0.5 0 1
17 1 72.1478 3.355 0 72.1478 82.621 0 145.307 447.397 103.549 9.72756 0.967578 0.252572 1 0.5 0 1
18 1 21.3976 42.6525 0 21.3976 42.6525 0 -173.07 176.575 -19.3661 98.1068 -0.193661 0.981068 1 0.5 0 1
19 1 7.18167 38.3289 0 7.18167 38.3289 0 -208.959 -236.244 -81.6569 -31.012 -0.969013 -0.247009 1 0.5 0 1
20 1 20.9666 55.0489 0 20.9666 55.0489 0 724.471 591.978 31.0335 166.718 0.948283 0.317425 1 0.5 0 1
21 1 24.2631 14.3873 0 24.2631 14.3873 0 487.712 664.407 -191.725 -22.6925 -0.99292 -0.118783 1 0.5 0 1
22 1 68.9943 22.4725 0 68.9943 22.4725 0 -287.449 112.446 -21.8014 16.0546 0.106843 -0.994276 1 0.5 0 1
23 1 3.59378 75.1434 0 82.8598 -4.12259 0 -273.225 207.679 79.5437 59.4477 0.798004 0.602653 1 0.5 0 1
24 1 66.3576 54.6211 0 66.3576 -24.6449 0 -245.21 569.555 143.266 124.394 -0.104639 -0.99451 1 0.5 0 1
25 1 32.3143 49.7666 0 -46.9517 -29.4994 0 932.2 -589.194 -39.3972 -8.31669 -0.301045 -0.95361 1 0.5 0 1
26 1 40.4739 36.3424 0 40.4739 -42.9236 0 127.264 226.786 99.6969 -7.78002 0.996969 -0.0778002 1 0.5 0 1
27 1 11.5448 79.2356 0 11.5448 79.2356 0 -173.921 464.94 -27.1868 72.5463 -0.00536852 0.999986 1 0.5 0 1
28 1 26.5397 69.1993 0 26.5397 69.1993 0 932.803 -103.013 78.454 -165.197 -0.99666 -0.0816611 1 0.5 0 1
29 1 77.3613 36.7372 0 -1.90468 36.7372 0 -600.603 -457.298 34.3797 138.327 -0.996514 -0.0834215 1 0.5 0 1
30 1 56.6032 22.2573 0 56.6032 101.523 0 -170.353 16.432 119.286 93.6261 0.443649 0.896201 1 0.5 0 1
31 1 77.6317 23.575 0 -1.63428 23.575 0 -301.094 451.664 30.0236 -58.5271 -0.973023 -0.230709 1 0.5 0 1
32 1 38.7794 38.489 0 38.7794 38.489 0 222.322 -181.915 -49.0583 -87.1395 -0.490583 -0.871395 1 0.5 0 1
33 1 64.7175 55.7931 0 64.7175 -23.4729 0 -220.566 549.112 125.664 -45.3934 0.999987 0.00502531 1 0.5 0 1
34 1 8.38609 41.7951 0 87.6521 41.7951 0 51.5755 258.466 -43.3347 -71.1499 -0.22415 0.974555 1 0.5 0 1
35 1 40.7348 64.0202 0 -38.5312 64.0202 0 160.469 474.849 -93.6772 34.9942 -0.936772 0.349942 1 0.5 0 1
36 1 61.0611 55.0902 0 61.0611 -24.1758 0 -383.53 470.517 8.63016 -105.238 0.688095 -0.725621 1 0.5 0 1
37 1 72.598 40.0821 0 72.598 40.0821 0 39.1286 208.674 -296.131 -191.532 0.940326 0.340275 1 0.5 0 1
38 1 16.8805 65.7227 0 96.1465 65.7227 0 -17.076 216.794 -63.7828 168.076 0.37277 0.927924 1 0.5 0 1
39 1 37.1093 35.2132 0 37.1093 -44.0528 0 442.129 -398.388 -0.422108 -17.8118 -0.272703 -0.962098 1 0.5 0 1
40 1 23.7709 32.4853 0 -55.4951 32.4853 0 -802.256 -718.093 -48.2374 87.5965 -0.482374 0.875965 1 0.5 0 1
41 1 70.2632 49.9274 0 70.2632 49.9274 0 -351.975 400.57 -32.0748 66.3433 -0.717242 -0.696824 1 0.5 0 1
42 1 74.4505 57.6163 0 -4.8155 57.6163 0 -48.6702 191.614 87.0855 71.4881 -0.423815 -0.905749 1 0.5 0 1
43 1 40.0537 69.8806 0 -39.2123 69.8806 0 95.5609 286.582 -59.0387 -32.8479 -0.772558 0.634944 1 0.5 0 1
44 1 58.1898 17.753 0 58.1898 97.019 0 -180.57 -483.353 3.05282 32.4944 0.631132 0.775676 1 0.5 0 1
45 1 40.4316 2.25951 0 40.4316 2.25951 0 50.207 -1.25111 35.8481 -22.0725 -0.694983 -0.719026 1 0.5 0 1
46 1 9.93769 38.8107 0 9.93769 38.8107 0 -187.28 -893.469 125.88 50.7797 0.785948 0.618293 1 0.5 0 1
47 1 30.0335 72.4813 0 30.0335 -6.78473 0 -1031.18 479.648 53.558 -72.7471 0.999765 0.021683 1 0.5 0 1
48 1 26.7861 42.0203 0 26.7861 42.0203 0 73.9048 540.152 -41.9649 32.9564 -0.810561 0.585654 1 0.5 0 1
49 1 26.5077 10.5932 0 105.774 89.8592 0 -297.454 653.592 106.157 -44.8754 -0.0635079 -0.997981 1 0.5 0 1
50 1 54.7043 29.7201 0 54.7043 29.7201 0 567.37 202.638 -113.38 -17.0816 0.00111002 0.999999 1 0.5 0 1
51 1 73.1729 15.5504 0 -6.09308 15.5504 0 -345.427 108.633 5.1951 23.3876 -0.897244 0.441536 1 0.5 0 1
52 1 13.5138 17.2557 0 92.7798 17.2557 0 533.403 1023.82 -38.8968 132.772 -0.357816 0.933792 1 0.5 0 1
53 1 23.9893 45.8874 0 23.9893 125.153 0 -145.441 -403.529 155.11 38.438 -0.878143 0.478399 1 0.5 0 1
54 1 57.3019 26.9879 0 57.3019 26.9879 0 -562.343 -170.068 -88.8464 28.8077 -0.429777 -0.902935 1 0.5 0 1
55 1 24.5074 11.0681 0 103.773 90.3341 0 113.374 548.871 -72.6693 -154.194 0.3745 0.927227 1 0.5 0 1
56 1 26.388 51.076 0 26.388 51.076 0 416.842 373.045 36.2132 -110.638 -0.6972 0.716876 1 0.5 0 1
57 1 31.5093 79.0996 0 31.5093 79.0996 0 123.141 -31.2966 -3.39174 24.8921 -0.999882 0.0153821 1 0.5 0 1
58 1 72.2807 24.1229 0 -6.9853 24.1229 0 260.703 147.202 219.333 100.624 -0.488832 0.872378 1 0.5 0 1
59 1 56.7592 31.7107 0 56.7592 31.7107 0 -229.579 -72.2554 8.23817 -15.1342 -0.728048 0.685526 1 0.5 0 1
60 1 59.0609 37.2326 0 59.0609 37.2326 0 -393.817 -574.392 26.5632 136.045 0.950978 0.309257 1 0.5 0 1
61 1 61.4043 40.9961 0 61.4043 40.9961 0 -114.066 135.96 -31.2013 -58.1228 0.00548897 0.999985 1 0.5 0 1
62 1 12.5929 75.2781 0 91.8589 -3.9879 0 463.55 -151.933 101.986 73.6466 0.847615 0.530612 1 0.5 0 1
63 1 34.5778 25.0563 0 -44.6882 25.0563 0 -64.5304 -182.561 -60.7229 -63.7365 -0.899578 -0.43676 1 0.5 0 1
64 1 78.5648 10.9444 0 78.5648 90.2104 0 368.726 -148.696 84.5498 53.5517 0.840939 0.54113 1 0.5 0 1
65 1 25.2601 36.4066 0 104.526 115.673 0 108.478 -318.14 84.1635 54.0048 0.841635 0.540048 1 0.5 0 1
66 1 17.8277 12.7869 0 97.0937 92.0529 0 -314.92 -451.11 -78.7556 21.5626 0.538611 0.842555 1 0.5 0 1
67 1 56.828 39.1148 0 56.828 39.1148 0 -268.44 -375.962 55.7746 -35.6372 0.984505 -0.175356 1 0.5 0 1
68 1 30.4813 58.4336 0 30.4813 58.4336 0 -75.0584 284.546 -5.68831 14.4782 -0.0920688 -0.995753 1 0.5 0 1
69 1 18.2735 57.2853 0 18.2735 57.2853 0 -156.67 -621.03 9.11147 -19.4841 -0.41997 -0.907538 1 0.5 0 1
70 1 50.1367 35.3241 0 50.1367 114.59 0 80.9598 -1065.75 38.1973 -75.1444 0.98957 0.144051 1 0.5 0 1
71 1 30.5737 9.04886 0 30.5737 9.04886 0 -976.738 469.923 25.1689 23.4484 0.693611 -0.720349 1 0.5 0 1
72 1 3.64824 55.7435 0 3.64824 55.7435 0 -292.749 -128.145 40.4789 -55.5517 -0.275608 -0.96127 1 0.5 0 1
73 1 30.1016 13.2986 0 30.1016 13.2986 0 786.48 0.983339 -48.2546 88.9558 -0.470546 0.882376 1 0.5 0 1
74 1 2.62561 9.18928 0 81.8916 88.4553 0 -232.633 -178.829 -49.7242 86.7612 -0.497242 0.867612 1 0.5 0 1
75 1 79.0261 35.7099 0 -0.23985 35.7099 0 -105.669 377.474 10.7354 121.668 0.49224 0.87046 1 0.5 0 1
76 1 57.6814 31.2875 0 -21.5846 31.2875 0 83.6147 385.897 8.4846 166.855 -0.666831 0.745209 1 0.5 0 1
77 1 2.97554 32.6422 0 2.97554 32.6422 0 905.485 -12.8227 -163.511 79.1138 0.819313 0.573347 1 0.5 0 1
78 1 14.0662 65.1236 0 14.0662 65.1236 0 111.068 -247.082 50.3579 112.322 0.999465 -0.0327078 1 0.5 0 1
79 1 21.7531 1.38096 0 21.7531 80.647 0 247.898 -217.714 87.7797 -6.95487 -0.830476 -0.557054 1 0.5 0 1
80 1 1.46042 21.5126 0 1.46042 -57.7534 0 29.9918 -530.228 66.4575 -27.4907 -0.999881 -0.0154372 1 0.5 0 1
81 1 49.9594 32.28 0 129.225 32.28 0 356.362 629.89 -9.7602 -49.728 -0.442248 -0.896893 1 0.5 0 1
82 1 4.34235 36.9999 0 4.34235 36.9999 0 96.2037 425.923 99.8017 77.969 0.633355 0.773862 1 0.5 0 1
83 1 78.6074 77.3501 0 78.6074 77.3501 0 172.806 -255.989 10.7888 -55.8246 0.353008 0.93562 1 0.5 0 1
84 1 79.0364 42.9493 0 -0.229623 42.9493 0 558.46 -606.492 -121.765 217.998 -0.435892 -0.899999 1 0.5 0 1
85 1 22.0229 58.8824 0 22.0229 -20.3836 0 752.103 -49.5242 -33.0259 -97.0029 0.915808 -0.401617 1 0.5 0 1
86 1 16.207 35.6618 0 16.207 35.6618 0 424.034 145.744 22.4763 55.7173 -0.219506 0.975611 1 0.5 0 1
87 1 31.2211 45.2676 0 31.2211 45.2676 0 -254.306 332.143 -63.8378 -13.633 -0.992796 -0.119813 1 0.5 0 1
88 1 27.0245 19.6136 0 27.0245 19.6136 0 -1128.93 -484.984 -64.0498 -76.796 -0.640498 -0.76796 1 0.5 0 1
89 1 27.9306 63.6889 0 27.9306 63.6889 0 104.463 102.476 5.105 -81.6653 0.953775 -0.30052 1 0.5 0 1
90 1 7.63537 34.8621 0 7.63537 34.8621 0 46.1093 -995.723 85.7769 -9.20991 -0.651266 -0.75885 1 0.5 0 1
91 1 11.1393 59.2961 0 11.1393 -19.9699 0 254.452 -297.603 48.4055 20.6768 0.978742 -0.205096 1 0.5 0 1
92 1 3.51534 52.7318 0 3.51534 52.7318 0 -504.849 -401.694 -94.4286 86.7777 -0.875489 0.483238 1 0.5 0 1
93 1 4.13616 43.3146 0 4.13616 43.3146 0 253.415 629.658 -15.4239 -163.524 0.486646 0.873599 1 0.5 0 1
94 1 73.519 34.1622 0 73.519 34.1622 0 -144.394 702.021 186.736 -92.1418 0.95037 -0.311123 1 0.5 0 1
95 1 69.0113 45.7352 0 69.0113 45.7352 0 -145.869 276.433 62.066 -431.662 0.985472 0.169841 1 0.5 0 1
96 1 56.6392 38.137 0 56.6392 38.137 0 -457.841 -199.873 -34.9299 -25.1379 0.90791 0.419165 1 0.5 0 1
97 1 55.6055 29.2636 0 55.6055 29.2636 0 50.1671 616.905 52.6542 -141.371 -0.886932 -0.461899 1 0.5 0 1
98 1 29.9809 16.1251 0 29.9809 95.3911 0 498.076 -224.554 26.7246 -65.6268 0.399124 -0.916897 1 0.5 0 1
99 1 39.3665 59.6384 0 39.3665 -19.6276 0 134.068 -114.052 -34.8205 -93.7419 -0.348205 -0.937419 1 0.5 0 1
100 1 75.3266 41.2315 0 75.3266 41.2315 0 349.607 -368.608 35.5744 -88.5693 -0.876521 -0.481363 1 0.5 0 1
101 1 50.3548 47.7971 0 50.3548 -31.4689 0 282.193 210.757 34.0917 -111.492 0.326869 -0.94507 1 0.5 0 1
102 1 2.11825 40.4406 0 2.11825 40.4406 0 151.889 -193.704 -277.82 86.5801 -0.561435 0.827521 1 0.5 0 1
103 1 63.5445 7.38929 0 -15.7215 86.6553 0 701.067 -273.673 -63.3704 77.738 -0.642158 0.766572 1 0.5 0 1
104 1 56.0837 39.7438 0 56.0837 119.01 0 112.681 277.841 -230.048 -58.3756 0.871389 0.490593 1 0.5 0 1
105 1 42.4978 72.3149 0 -36.7682 -6.95107 0 -225.821 350.545 35.0323 59.1149 0.0480949 0.998843 1 0.5 0 1
106 1 3.6709 18.0322 0 3.6709 18.0322 0 293.602 921.402 -34.088 -5.87739 -0.93165 -0.363357 1 0.5 0 1
107 1 66.1799 32.9398 0 66.1799 32.9398 0 372.21 617.507 -134.391 -133.69 -0.391874 0.920019 1 0.5 0 1
108 1 3.21565 34.5868 0 3.21565 113.853 0 -466.292 887.522 -34.4217 -72.8072 0.585275 0.810835 1 0.5 0 1
109 1 45.2353 63.6635 0 -34.0307 63.6635 0 277.321 19.4051 -108.397 -69.5525 -0.999958 -0.0091549 1 0.5 0 1
110 1 45.6982 30.4434 0 45.6982 30.4434 0 595.509 -620.035 94.1438 92.9603 0.956617 0.29135 1 0.5 0 1
111 1 47.01 45.7791 0 47.01 45.7791 0 353.269 292.414 -9.71945 102.806 0.102625 0.99472 1 0.5 0 1
112 1 12.3747 46.024 0 12.3747 46.024 0 -448.987 140.621 59.6105 70.9383 -0.998274 -0.0587213 1 0.5 0 1
113 1 43.7668 46.7775 0 -35.4992 46.7775 0 -612.234 364.953 -29.5961 6.83462 -0.543568 0.839365 1 0.5 0 1
114 1 48.7808 56.1 0 48.7808 56.1 0 1053.19 -367.495 95.6121 -29.2971 0.956121 -0.292971 1 0.5 0 1
115 1 43.2814 9.97027 0 -35.9846 9.97027 0 -612.005 -167.395 -13.911 -99.0277 -0.13911 -0.990277 1 0.5 0 1
116 1 33.4874 69.0387 0 33.4874 -10.2273 0 652.988 533.334 88.6964 55.3795 0.45431 -0.890844 1 0.5 0 1
117 1 33.9374 53.8278 0 33.9374 53.8278 0 993.786 -383.189 -82.4654 -44.6803 -0.986384 0.164461 1 0.5 0 1
118 1 57.3699 37.4984 0 57.3699 37.4984 0 -266.669 754.323 -16.0641 -7.61547 0.736832 -0.676076 1 0.5 0 1
119 1 61.8223 5.92344 0 61.8223 5.92344 0 1410.19 17.9666 80.2431 -50.488 0.827443 -0.561549 1 0.5 0 1
120 1 39.259 24.5357 0 118.525 24.5357 0 -110.906 45.7847 78.7493 -61.6324 0.787493 -0.616324 1 0.5 0 1
121 1 29.2805 8.37367 0 -49.9855 8.37367 0 480.053 -99.0079 -61.9363 121.277 0.154154 -0.988047 1 0.5 0 1
122 1 49.2595 24.5848 0 49.2595 103.851 0 204.072 -127.397 135.091 50.2865 0.660927 0.75045 1 0.5 0 1
123 1 79.1829 29.3602 0 -0.0831482 29.3602 0 -408.893 276.602 150.601 14.0837 -0.495604 0.868549 1 0.5 0 1
124 1 30.399 53.0812 0 30.399 53.0812 0 907.527 865.759 -28.6674 67.7996 -0.90382 -0.427912 1 0.5 0 1
125 1 66.9982 24.9562 0 66.9982 24.9562 0 848.325 165.249 -89.2262 -282.091 0.972757 0.231828 1 0.5 0 1
126 1 9.65356 27.2452 0 88.9196 106.511 0 158.955 -315.568 14.4212 116.524 0.00173856 0.999998 1 0.5 0 1
127 1 62.8406 27.8758 0 62.8406 107.142 0 322.386 -517.339 -72.452 80.4036 0.83134 0.555765 1 0.5 0 1
128 1 14.049 32.6105 0 -65.217 32.6105 0 9.92239 -257.767 7.26927 -92.5964 -0.366289 -0.930501 1 0.5 0 1
129 1 68.1096 54.4807 0 68.1096 -24.7853 0 -771.508 84.2128 210.795 -127.103 0.368271 -0.929718 1 0.5 0 1
130 1 74.139 53.6139 0 74.139 -25.6521 0 88.3984 189.93 148.062 -8.08524 -0.748776 -0.662824 1 0.5 0 1
131 1 54.7915 3.72566 0 -24.4745 82.9917 0 -19.4435 -33.9334 -73.8628 65.9142 -0.750713 0.660628 1 0.5 0 1
132 1 65.5122 28.1692 0 -13.7538 107.435 0 -220.308 516.413 -2.53295 -200.983 0.359426 0.933174 1 0.5 0 1
133 1 55.5708 30.2614 0 55.5708 109.527 0 -755.017 1153.07 27.094 -21.4308 -0.89779 0.440424 1 0.5 0 1
134 1 32.5773 52.8914 0 32.5773 52.8914 0 -682.26 -127.605 -10.9209 -73.9115 -0.0945757 -0.995518 1 0.5 0 1
135 1 27.706 41.3399 0 27.706 120.606 0 -540.571 359.945 -100.233 17.877 -0.622832 0.782356 1 0.5 0 1
136 1 25.5977 34.025 0 25.5977 113.291 0 -379.201 -15.9786 -63.4161 -77.3201 -0.634161 -0.773201 1 0.5 0 1
137 1 49.4024 57.4704 0 128.668 57.4704 0 615.24 -16.7473 47.8711 86.3697 0.512529 0.85867 1 0.5 0 1
138 1 11.8664 7.99575 0 11.8664 7.99575 0 -585.681 -258.398 -97.3033 23.0666 -0.973033 0.230666 1 0.5 0 1
139 1 30.0953 61.1797 0 30.0953 -18.0863 0 175.715 -5.82971 -183.148 91.7543 -0.363002 -0.931788 1 0.5 0 1
140 1 28.5042 0.944753 0 28.5042 0.944753 0 35.2469 1496.75 21.543 -34.3629 -0.962773 -0.27031 1 0.5 0 1
141 1 9.69909 52.3711 0 9.69909 52.3711 0 -344.774 304.664 -102.851 141.716 -0.772002 -0.635621 1 0.5 0 1
142 1 19.7111 69.7688 0 19.7111 69.7688 0 21.0312 137.243 80.8515 125.975 -0.177171 0.98418 1 0.5 0 1
143 1 14.1795 34.7548 0 14.1795 114.021 0 355.539 -108.438 -70.6138 8.77193 -0.890039 0.455885 1 0.5 0 1
144 1 48.0902 45.5989 0 48.0902 -33.6671 0 354.583 1266.79 -78.0515 -23.0679 -0.980335 -0.197343 1 0.5 0 1
145 1 66.3158 15.494 0 66.3158 94.76 0 213.929 -240.006 -11.8892 -15.8986 0.675649 0.737223 1 0.5 0 1
146 1 31.7783 77.565 0 31.7783 -1.70098 0 418.574 -401.29 -35.2802 -12.1906 -0.232653 -0.97256 1 0.5 0 1
147 1 73.9588 65.2502 0 73.9588 -14.0158 0 -247.162 294.231 65.0877 -110.187 0.162525 -0.986704 1 0.5 0 1
148 1 19.6428 8.38343 0 98.9088 8.38343 0 94.696 370.205 -29.6185 -19.9965 0.983056 0.183307 1 0.5 0 1
149 1 76.4697 29.0088 0 76.4697 108.275 0 182.278 394.065 163.989 91.4237 0.959982 -0.280062 1 0.5 0 1
150 1 70.6829 33.0298 0 -8.58312 33.0298 0 -571.045 -226.156 15.0383 196.038 -0.476934 0.878939 1 0.5 0 1
151 1 2.74369 55.321 0 82.0097 -23.945 0 -467.378 385.502 62.8256 8.53091 0.714205 -0.699937 1 0.5 0 1
152 1 27.604 47.4589 0 27.604 126.725 0 672.183 -775.734 -21.7787 -80.7126 0.99473 -0.102526 1 0.5 0 1
153 1 76.197 57.5304 0 76.197 57.5304 0 -0.957119 309.821 41.0214 164.735 0.741627 -0.670813 1 0.5 0 1
154 1 4.38225 47.2377 0 4.38225 47.2377 0 -311.181 734.808 -21.2167 44.7598 0.298006 -0.954564 1 0.5 0 1
155 1 5.40496 10.5975 0 -73.861 10.5975 0 -544.5 -287.081 -52.1678 -6.13625 -0.993081 -0.117433 1 0.5 0 1
156 1 75.8371 45.9937 0 75.8371 45.9937 0 -634.874 115.555 1.92978 -137.128 -0.748474 0.663165 1 0.5 0 1
157 1 75.0148 17.9556 0 -4.25122 17.9556 0 66.1066 274.967 -104.426 -194.029 -0.385711 0.92262 1 0.5 0 1
158 1 70.2865 36.4446 0 -8.97948 36.4446 0 512.315 -173.035 -362.45 148.236 -0.931758 0.363079 1 0.5 0 1
159 1 68.3706 9.36251 0 68.3706 88.6285 0 69.0597 -197.043 -62.7077 -66.6865 -0.725668 -0.688045 1 0.5 0 1
160 1 35.0103 0.088498 0 35.0103 0.088498 0 -572.916 216.99 -25.013 103.309 -0.576078 0.817394 1 0.5 0 1
161 1 14.9182 67.671 0 14.9182 -11.595 0 -336.691 -426.899 97.8174 13.8647 0.996716 0.0809798 1 0.5 0 1
162 1 6.97141 48.7274 0 6.97141 48.7274 0 -59.4392 -356.546 7.33595 141.973 -0.669315 -0.742979 1 0.5 0 1
163 1 65.5279 45.6074 0 65.5279 45.6074 0 2.31889 -379.41 298.755 -19.4412 -0.941101 -0.338124 1 0.5 0 1
164 1 28.4287 43.2455 0 28.4287 43.2455 0 -13.5451 454.667 -72.8037 86.3508 0.171477 -0.985188 1 0.5 0 1
165 1 33.958 50.3923 0 33.958 -28.8737 0 262.755 -462.794 -17.4358 -18.9887 -0.958265 0.285881 1 0.5 0 1
166 1 12.7865 42.2846 0 12.7865 42.2846 0 -1173.34 646.976 52.3939 -196.613 -0.860128 -0.510079 1 0.5 0 1
167 1 64.9954 21.9433 0 64.9954 21.9433 0 865.448 265.233 52.8754 -83.5829 0.31095 -0.950426 1 0.5 0 1
168 1 10.1158 20.215 0 10.1158 99.481 0 -149.371 -790.983 -95.3216 30.2291 -0.953216 0.302291 1 0.5 0 1
169 1 19.8295 48.6367 0 19.8295 127.903 0 227.769 128.542 -5.99546 -57.6728 -0.0255235 0.999674 1 0.5 0 1
170 1 11.5786 17.9765 0 90.8446 97.2425 0 -292.884 854.122 -43.7232 137 0.741489 0.670965 1 0.5 0 1
171 1 34.7235 28.6596 0 113.99 28.6596 0 202.776 -190.141 68.9313 -72.4464 0.689313 -0.724464 1 0.5 0 1
172 1 8.76744 52.8442 0 8.76744 -26.4218 0 -599.416 795.538 37.4796 60.8466 -0.99998 -0.0063072 1 0.5 0 1
173 1 31.5185 64.4024 0 31.5185 -14.8636 0 -199.047 -134.07 47.5487 21.9326 -0.965902 -0.258907 1 0.5 0 1
174 1 9.50401 49.3592 0 9.50401 49.3592 0 -244.03 -473.478 245.962 -51.1271 -0.624259 0.781218 1 0.5 0 1
175 1 15.279 14.9324 0 15.279 14.9324 0 -305.738 -984.845 -45.4936 47.3654 -0.99463 0.103498 1 0.5 0 1
176 1 11.4854 47.5002 0 11.4854 47.5002 0 -272.723 -221.824 0.923314 -51.6028 -0.966157 -0.257955 1 0.5 0 1
177 1 26.3884 7.7824 0 26.3884 87.0484 0 -826.633 123.963 -256.19 -112.982 -0.554762 -0.832009 1 0.5 0 1
178 1 61.6633 25.5131 0 -17.6027 104.779 0 93.9798 306.346 282.256 117.675 -0.791716 0.610889 1 0.5 0 1
179 1 4.37836 53.2044 0 4.37836 -26.0616 0 -11.8771 321.442 127.437 -113.351 -0.0539104 -0.998546 1 0.5 0 1
180 1 76.8129 39.2117 0 76.8129 39.2117 0 167.448 113.834 160.327 -133.501 -0.561938 0.827179 1 0.5 0 1
181 1 57.4426 22.8099 0 57.4426 22.8099 0 374.575 -781.5 -152.91 -2.4569 -0.817583 -0.57581 1 0.5 0 1
182 1 12.4629 17.452 0 12.4629 96.718 0 74.0039 462.037 -3.06081 -131.174 -0.70781 -0.706403 1 0.5 0 1
183 1 59.9927 52.6531 0 59.9927 -26.6129 0 81.4548 247.741 44.655 10.4347 0.998237 0.0593495 1 0.5 0 1
184 1 66.2528 39.2912 0 66.2528 39.2912 0 -860.206 318.069 55.1535 31.9405 -0.892288 0.451466 1 0.5 0 1
185 1 13.4646 37.6281 0 13.4646 37.6281 0 -680.962 71.6673 -85.2449 -85.0292 -0.975872 0.218343 1 0.5 0 1
186 1 15.7926 65.8097 0 15.7926 65.8097 0 -0.181373 -121.252 -33.1858 81.4074 -0.667539 0.744575 1 0.5 0 1
187 1 61.5412 31.9477 0 -17.7248 111.214 0 -507.803 686.909 -46.7474 -119.885 0.175147 0.984542 1 0.5 0 1
188 1 15.9891 73.572 0 95.2551 73.572 0 -265.482 693.936 -49.355 18.1486 0.673342 0.739331 1 0.5 0 1
189 1 27.1631 11.444 0 27.1631 11.444 0 -1230.32 -86.6452 -24.3729 22.4834 0.885253 0.465111 1 0.5 0 1
190 1 50.5761 70.3596 0 -28.6899 70.3596 0 388.038 439.501 -98.6841 -16.1696 -0.986841 -0.161696 1 0.5 0 1
191 1 55.1461 15.1237 0 134.412 15.1237 0 -501.258 -18.4279 -84.5382 38.3461 0.999284 -0.0378468 1 0.5 0 1
192 1 63.803 34.6692 0 63.803 34.6692 0 -96.9571 298.457 242.185 -208.528 0.790706 -0.612196 1 0.5 0 1
193 1 33.7121 20.0279 0 -45.5539 20.0279 0 33.2587 277.529 -80.7423 66.0411 -0.413579 0.910468 1 0.5 0 1
194 1 27.6549 55.9788 0 27.6549 55.9788 0 119.23 -113.605 13.8242 -32.9271 -0.306004 -0.95203 1 0.5 0 1
195 1 58.1044 24.6182 0 58.1044 24.6182 0 -422.183 -263.224 48.1759 21.0368 -0.503142 0.864204 1 0.5 0 1
196 1 61.6674 37.3887 0 61.6674 37.3887 0 62.3981 -401.462 -60.0584 146.8 -0.562877 -0.826541 1 0.5 0 1
197 1 71.1816 58.8973 0 -8.08438 58.8973 0 392.299 683.158 -89.2213 -136.748 0.830703 -0.556715 1 0.5 0 1
198 1 76.3837 42.5811 0 76.3837 42.5811 0 -318.678 81.7213 -186.904 -314.341 -0.971707 0.236189 1 0.5 0 1
199 1 67.4464 64.9487 0 -11.8196 -14.3173 0 -2.46346 -592.531 -86.8683 -27.3606 0.405568 -0.914065 1 0.5 0 1
200 1 32.8429 72.5127 0 32.8429 72.5127 0 -705.047 66.4328 98.3146 62.1469 0.868407 0.495852 1 0.5 0 1
201 1 6.10332 60.6154 0 6.10332 -18.6506 0 -500.389 -883.58 102.793 -88.9261 0.512 0.858986 1 0.5 0 1
202 1 60.2781 56.7695 0 -18.9879 -22.4965 0 -147.625 888.314 5.17336 -2.4029 0.157026 -0.987595 1 0.5 0 1
203 1 54.9642 74.9548 0 -24.3018 74.9548 0 127.71 533.352 -49.6544 -51.5059 -0.981725 0.190307 1 0.5 0 1
204 1 53.4989 2.27582 0 53.4989 2.27582 0 246.647 238.403 142.674 7.2804 0.845831 -0.533451 1 0.5 0 1
205 1 22.4568 53.6793 0 22.4568 53.6793 0 -217.024 439.278 182.921 -197.445 -0.998426 -0.0560802 1 0.5 0 1
206 1 1.21524 56.6566 0 1.21524 -22.6094 0 -232.148 206.287 43.3514 -146.178 -0.913878 -0.405988 1 0.5 0 1
207 1 21.1612 76.1471 0 21.1612 76.1471 0 -173.313 117.743 -81.5305 -129.723 0.641973 0.766727 1 0.5 0 1
208 1 32.3535 42.9664 0 32.3535 42.9664 0 291.88 771.286 -28.8638 -15.0291 -0.853301 -0.521419 1 0.5 0 1
209 1 40.5835 12.1622 0 40.5835 91.4282 0 577.491 217.219 38.9887 92.0863 0.389887 0.920863 1 0.5 0 1
210 1 65.9534 59.2569 0 -13.3126 59.2569 0 83.622 -618.272 -28.5481 83.0271 0.480143 -0.87719 1 0.5 0 1
211 1 63.6612 39.1517 0 63.6612 39.1517 0 188.302 363.037 -15.7188 -27.8426 0.907506 -0.42004 1 0.5 0 1
212 1 55.0467 66.1804 0 134.313 -13.0856 0 602.427 -427.758 79.3526 -7.33635 0.872805 -0.488069 1 0.5 0 1
213 1 69.6142 61.0268 0 69.6142 61.0268 0 564.979 -485.484 68.7691 76.746 0.919569 0.392928 1 0.5 0 1
214 1 61.641 24.5372 0 61.641 103.803 0 -461.692 509.615 241.25 -221.781 0.67416 -0.738585 1 0.5 0 1
215 1 30.8021 73.1175 0 30.8021 -6.14848 0 1236.24 -175.97 130.59 -4.11346 0.636253 -0.771481 1 0.5 0 1
216 1 23.4183 49.2252 0 23.4183 128.491 0 -64.1685 32.3588 -2.3672 -113.01 0.636739 0.77108 1 0.5 0 1
217 1 68.1011 0.811923 0 68.1011 0.811923 0 -119.819 130.662 96.5404 43.0322 0.944482 0.328562 1 0.5 0 1
218 1 51.3973 46.4026 0 51.3973 46.4026 0 -264.724 -1519.39 -103.367 38.5202 0.944441 0.328681 1 0.5 0 1
219 1 55.2861 40.3517 0 55.2861 40.3517 0 312.692 448.829 144.124 -252.264 -0.356139 -0.934433 1 0.5 0 1
220 1 34.8656 57.455 0 34.8656 -21.811 0 -471.476 403.593 -44.6218 -89.8865 -0.973583 -0.228331 1 0.5 0 1
221 1 35.9122 30.2516 0 35.9122 109.518 0 -524.274 60.7448 -59.5691 80.3214 -0.595691 0.803214 1 0.5 0 1
222 1 29.3807 44.079 0 29.3807 -35.187 0 249.129 -261.556 82.6914 -171.364 0.99904 0.043797 1 0.5 0 1
223 1 75.3649 34.9594 0 -3.90108 34.9594 0 -127.914 -108.213 -75.3481 85.3513 -0.84501 0.534751 1 0.5 0 1
224 1 74.7053 59.6744 0 -4.56071 59.6744 0 213.339 -146.601 130.217 -56.0528 0.850902 0.525325 1 0.5 0 1
225 1 16.0522 60.7113 0 95.3182 -18.5547 0 -324.911 -83.6884 38.7825 40.7136 0.996188 -0.0872321 1 0.5 0 1
226 1 26.974 60.4423 0 26.974 -18.8237 0 -181.946 723.316 9.13148 -110.28 -0.913809 -0.406144 1 0.5 0 1
227 1 4.85946 33.5138 0 84.1255 33.5138 0 -193.963 122.278 -102.748 -130.341 0.359938 0.932976 1 0.5 0 1
228 1 43.2152 57.56 0 -36.0508 57.56 0 33.7044 -223.224 -52.9411 -61.8759 -0.87625 -0.481856 1 0.5 0 1
229 1 54.4985 36.4209 0 54.4985 36.4209 0 -82.3401 -328.314 -9.04459 135.401 0.99307 -0.117524 1 0.5 0 1
230 1 55.0624 34.8566 0 55.0624 114.123 0 668.929 -472.753 82.1268 -165.066 -0.633684 0.773592 1 0.5 0 1
231 1 66.1073 11.848 0 66.1073 91.114 0 24.7828 194.506 3.8464 -47.1902 -0.828731 0.559647 1 0.5 0 1
232 1 52.9248 30.8867 0 52.9248 -48.3793 0 119.187 186.104 3.94662 -109.654 0.877387 -0.479784 1 0.5 0 1
233 1 9.30351 42.2528 0 9.30351 42.2528 0 -75.4604 297.785 3.15204 -85.9751 -0.435765 -0.900061 1 0.5 0 1
234 1 22.1999 56.3231 0 22.1999 -22.9429 0 237.424 344.852 -72.5125 162.747 -0.75743 0.652917 1 0.5 0 1
235 1 21.6898 66.4248 0 21.6898 66.4248 0 -104.91 59.58 117.769 -32.1076 0.170716 0.98532 1 0.5 0 1
236 1 24.4544 74.1006 0 103.72 74.1006 0 -517.477 -68.2049 46.2772 95.2572 0.876734 -0.480976 1 0.5 0 1
237 1 57.3599 23.8487 0 57.3599 23.8487 0 -411.053 -466.9 16.8878 86.7588 0.817199 -0.576356 1 0.5 0 1
238 1 62.894 13.4046 0 62.894 92.6706 0 30.2452 350.785 -10.7329 19.7323 0.414141 0.910213 1 0.5 0 1
239 1 6.36878 38.8745 0 85.6348 38.8745 0 -285.66 -112.868 -16.9114 -45.9372 0.986823 0.161804 1 0.5 0 1
240 1 50.4156 22.8512 0 50.4156 22.8512 0 35.2336 25.9638 13.12 0.295607 0.686419 -0.727206 1 0.5 0 1
241 1 50.4709 34.2872 0 50.4709 34.2872 0 -116.079 -649.824 -145.053 85.1005 -0.206032 -0.978545 1 0.5 0 1
242 1 0.989515 61.3461 0 80.2555 -17.9199 0 103.716 -208.43 95.0461 -80.2049 0.322686 -0.946506 1 0.5 0 1
243 1 57.8606 14.0798 0 -21.4054 93.3458 0 -208.924 1224.32 -144.395 -68.7754 -0.98939 0.145285 1 0.5 0 1
244 1 39.1395 0.851686 0 39.1395 80.1177 0 -341.634 -987.065 -50.8948 34.1575 -0.282639 0.959226 1 0.5 0 1
245 1 57.7407 46.9059 0 57.7407 46.9059 0 -748.681 -300.153 54.3718 -30.8777 0.290931 -0.956744 1 0.5 0 1
246 1 52.0559 37.3989 0 52.0559 37.3989 0 167.139 -408.927 211.162 -66.7056 0.389079 -0.921204 1 0.5 0 1
247 1 68.6359 51.0128 0 68.6359 -28.2532 0 -402.209 -108.357 -198.817 307.205 -0.773765 -0.633472 1 0.5 0 1
248 1 36.9699 42.3027 0 -42.2961 121.569 0 383.454 137.903 -22.4907 37.7093 -0.802175 0.597089 1 0.5 0 1
249 1 73.0391 19.8878 0 73.0391 19.8878 0 362.768 -110.691 8.68678 -47.8537 0.993571 -0.11321 1 0.5 0 1
250 1 19.9676 75.3349 0 99.2336 75.3349 0 8.35698 -444.744 3.44695 -21.819 0.207977 0.978134 1 0.5 0 1
251 1 36.6004 75.8283 0 36.6004 155.094 0 1162.68 195.311 55.0934 -0.0930416 -0.653692 0.756761 1 0.5 0 1
252 1 29.0497 68.101 0 29.0497 68.101 0 273.976 -245.711 84.1833 -7.49207 -0.444334 0.895861 1 0.5 0 1
253 1 18.6456 62.4806 0 18.6456 62.4806 0 128.449 553.787 42.2567 -122.415 0.999821 -0.018926 1 0.5 0 1
254 1 48.4451 30.3552 0 48.4451 109.621 0 -83.4396 -230 -39.1746 73.9175 0.55756 0.830137 1 0.5 0 1
255 1 5.45776 30.9468 0 84.7238 110.213 0 -503.507 135.169 95.7738 17.09 -0.809486 0.587139 1 0.5 0 1
256 1 71.6285 39.6662 0 -7.63751 39.6662 0 318.328 -783.785 236.069 59.0145 0.813441 -0.581648 1 0.5 0 1
257 1 10.4665 35.2442 0 10.4665 114.51 0 407.877 121.281 -164.046 157.916 -0.894513 -0.447042 1 0.5 0 1
258 1 36.3927 40.8851 0 36.3927 -38.3809 0 -135.325 22.3838 4.0201 -65.0256 -0.637305 -0.770612 1 0.5 0 1
259 1 12.0326 55.198 0 91.2986 55.198 0 -283.972 1028.5 91.0053 8.46093 -0.657102 0.753801 1 0.5 0 1
260 1 42.433 9.00275 0 121.699 9.00275 0 -1075.68 -514.873 61.9647 -78.488 0.619647 -0.78488 1 0.5 0 1
261 1 59.8 8.49265 0 -19.466 8.49265 0 312.759 -51.2244 -48.5462 -41.5647 -0.929226 0.369512 1 0.5 0 1
262 1 62.9909 61.1216 0 142.257 -18.1444 0 -911.28 -531.338 -17.2265 -11.9235 -0.639967 -0.768403 1 0.5 0 1
263 1 34.8546 68.6136 0 -44.4114 -10.6524 0 -522.31 690.097 2.73948 -133.51 -0.466375 -0.884587 1 0.5 0 1
264 1 48.5101 21.3783 0 127.776 21.3783 0 695.05 -161.17 -11.0716 99.1625 0.997653 -0.0684779 1 0.5 0 1
265 1 48.3688 23.3745 0 48.3688 102.64 0 -270.789 735.62 22.7549 16.5069 0.835416 0.549618 1 0.5 0 1
266 1 56.9522 48.3863 0 56.9522 48.3863 0 -635.818 -303.276 150.948 54.911 0.751914 -0.659261 1 0.5 0 1
267 1 75.1313 63.677 0 -4.13468 -15.589 0 312.936 295.291 -9.34579 37.5726 -0.87966 -0.475602 1 0.5 0 1
268 1 66.6676 57.6144 0 66.6676 57.6144 0 -124.458 -1575.99 -153.544 151.765 0.79537 -0.606124 1 0.5 0 1
269 1 38.1134 28.9822 0 117.379 28.9822 0 -84.5194 422.945 -72.6332 68.7344 -0.726332 0.687344 1 0.5 0 1
270 1 52.1159 49.411 0 131.382 -29.855 0 -198.798 627.913 31.2078 -80.1025 0.548752 -0.835985 1 0.5 0 1
271 1 57.5409 21.7876 0 57.5409 21.7876 0 -151.933 -406.383 252.339 75.9978 0.699034 -0.715088 1 0.5 0 1
272 1 53.3612 35.0827 0 53.3612 35.0827 0 271.709 -115.331 -1.20884 -105.908 -0.10111 0.994875 1 0.5 0 1
273 1 61.2422 46.4784 0 61.2422 46.4784 0 262.05 -1.247 75.4016 77.8561 0.54485 -0.838534 1 0.5 0 1
274 1 11.6654 53.1684 0 11.6654 -26.0976 0 -172.258 -243.551 -48.7601 -18.0394 -0.737658 0.675174 1 0.5 0 1
275 1 7.31813 58.713 0 86.5841 -20.553 0 -790.059 169.706 70.7577 43.3744 -0.79316 -0.609014 1 0.5 0 1
276 1 60.6481 41.606 0 60.6481 41.606 0 546.368 313.817 -32.6904 -26.1402 0.960682 -0.27765 1 0.5 0 1
277 1 29.127 18.5839 0 -50.139 18.5839 0 723.578 71.1264 -75.0271 -66.1131 -0.750271 -0.661131 1 0.5 0 1
278 1 39.7713 10.8235 0 -39.4947 90.0895 0 -100.695 613.887 -46.6662 88.4436 -0.466662 0.884436 1 0.5 0 1
279 1 47.3295 20.7466 0 126.596 20.7466 0 709.691 -52.8428 -29.9965 -52.445 0.544838 -0.838541 1 0.5 0 1
280 1 43.5593 41.2534 0 43.5593 -38.0126 0 -223.515 -895.872 -72.8806 -42.407 -0.884334 -0.466856 1 0.5 0 1
281 1 68.9666 53.9481 0 68.9666 53.9481 0 -53.0096 683.425 78.9698 -131.674 0.949374 -0.314149 1 0.5 0 1
282 1 49.1757 43.479 0 49.1757 -35.787 0 546.456 -277.964 29.6785 73.5812 0.961436 -0.275027 1 0.5 0 1
283 1 73.8012 28.6873 0 -5.46484 107.953 0 -773.587 513.488 -18.3501 -63.1171 0.417225 0.908803 1 0.5 0 1
284 1 74.1085 18.4202 0 -5.15749 97.6862 0 -29.349 -615.715 -60.2163 -14.1279 0.988271 0.152713 1 0.5 0 1
285 1 69.6511 31.6844 0 69.6511 31.6844 0 1.01992 368.627 -97.8666 -28.2955 0.976371 0.216101 1 0.5 0 1