ITEM: TIMESTEP
100000
ITEM: NUMBER OF ATOMS
4000
ITEM: BOX BOUNDS pp pp pp
0.0000000000000000e+00 7.9266000000000005e+01
0.0000000000000000e+00 7.9266000000000005e+01
-5.0000000000000000e-01 5.0000000000000000e-01
ITEM: ATOMS id type x y z xu yu zu vx vy fx fy mux muy mu radius omegaz mass
1 1 50.0151 64.9217 0 50.0151 64.9217 0 -781.381 -135.284 1.54852 34.5973 0.236111 0.971726 1 0.5 0 1
2 1 27.6286 63.7961 0 27.6286 -15.4699 0 263.6 65.1912 30.5557 -5.7192 -0.628368 -0.777916 1 0.5 0 1
3 1 57.7426 66.3462 0 57.7426 -12.9198 0 127.283 -452.7 29.9203 -77.5537 0.403785 -0.914854 1 0.5 0 1
4 1 57.6374 27.8073 0 57.6374 107.073 0 -436.536 -239.186 -25.6538 -22.1305 -0.341437 0.939905 1 0.5 0 1
5 1 45.6032 27.0387 0 45.6032 27.0387 0 -258.659 -341.099 -98.2433 -18.6614 -0.982433 -0.186614 1 0.5 0 1
6 1 16.7991 22.797 0 16.7991 22.797 0 169.214 285.502 -51.6527 -26.527 -0.971853 0.235588 1 0.5 0 1
7 1 67.854 45.84 0 67.854 45.84 0 -293.199 48.5874 212.521 -354.159 -0.23664 0.971597 1 0.5 0 1
8 1 22.0791 72.5425 0 22.0791 -6.72346 0 287.524 286.056 -85.3675 -112.571 -0.698332 -0.715774 1 0.5 0 1
9 1 48.153 21.1418 0 48.153 21.1418 0 453.19 407.148 39.9931 75.5969 0.998146 0.0608581 1 0.5 0 1
10 1 66.1079 64.1496 0 66.1079 64.1496 0 -390.805 33.7894 38.8705 -47.8885 -0.961751 -0.273925 1 0.5 0 1
11 1 53.5881 54.3406 0 -25.6779 54.3406 0 -672.038 -154.292 -105.125 -32.1318 -0.999901 0.0140541 1 0.5 0 1
12 1 64.3209 64.3117 0 64.3209 64.3117 0 504.275 45.7794 -116.916 -80.9868 0.443688 0.896181 1 0.5 0 1
13 1 27.1629 48.0279 0 27.1629 48.0279 0 -549.637 263.762 -57.3583 -114.227 0.216866 -0.976201 1 0.5 0 1
14 1 53.5343 44.5302 0 -25.7317 44.5302 0 415.359 166.977 -60.3253 -44.2665 -0.456646 -0.889649 1 0.5 0 1
15 1 35.8574 55.451 0 35.8574 55.451 0 -82.7046 35.0799 20.6678 1.74725 -0.976987 -0.213297 1 0.5 0 1
16 1 59.9669 8.86996 0 -19.2991 8.86996 0 -667.787 -277.831 83.6881 131.065 -0.595221 -0.803562 1 0.5 0 1
17 1 36.7094 50.9971 0 36.7094 50.9971 0 431.167 112.843 121.736 -36.469 -0.58873 0.80833 1 0.5 0 1
18 1 24.5946 16.5667 0 24.5946 16.5667 0 17.9099 278.048 -66.1321 -7.96337 -0.862478 -0.506094 1 0.5 0 1
19 1 19.0293 45.3499 0 19.0293 45.3499 0 -535.011 87.8729 -101.624 -76.2502 -0.700022 -0.714121 1 0.5 0 1
20 1 25.5061 59.8549 0 25.5061 59.8549 0 -239.954 -565.518 226.187 -64.3204 0.812994 0.582273 1 0.5 0 1
21 1 48.333 69.9709 0 48.333 -9.29509 0 636.699 655.233 54.0086 94.3586 0.0248008 0.999692 1 0.5 0 1
22 1 56.0141 20.168 0 56.0141 20.168 0 418.276 500.046 -91.8264 -72.706 0.998024 -0.06284 1 0.5 0 1
23 1 36.5316 71.5086 0 36.5316 -7.75744 0 309.086 -555.779 -10.7211 -38.1969 0.78833 -0.615252 1 0.5 0 1
24 1 65.8528 62.803 0 65.8528 -16.463 0 -301.771 -736.819 -17.8895 -73.716 0.60159 -0.798805 1 0.5 0 1
25 1 64.1886 72.946 0 -15.0774 -6.32001 0 251.688 -909.723 -98.8221 -2.29491 -0.963422 -0.26799 1 0.5 0 1
26 1 30.9187 53.5042 0 30.9187 -25.7618 0 -827.928 299.852 -64.797 14.9415 0.0510541 -0.998696 1 0.5 0 1
27 1 32.1154 40.5179 0 32.1154 40.5179 0 -21.1834 -70.7653 -2.76723 -54.7658 -0.80083 0.598891 1 0.5 0 1
28 1 13.0938 58.3331 0 13.0938 58.3331 0 -52.0489 39.0839 -71.1572 48.544 -0.240171 0.970731 1 0.5 0 1
29 1 78.1421 37.2045 0 -1.1239 37.2045 0 389.617 -80.8516 56.2126 -224.151 -0.997993 -0.063319 1 0.5 0 1
30 1 53.1476 29.4871 0 53.1476 108.753 0 -213.3 -235.929 99.5436 27.4501 0.950744 0.309978 1 0.5 0 1
31 1 18.0296 36.8786 0 18.0296 36.8786 0 87.1347 369.439 29.8036 -74.9273 -0.121555 -0.992585 1 0.5 0 1
32 1 23.182 55.5601 0 23.182 55.5601 0 -269.796 117.42 -28.269 12.1407 -0.511409 0.859337 1 0.5 0 1
33 1 33.8343 52.3171 0 33.8343 -26.9489 0 -149.303 704.321 -17.634 -87.9 0.974366 -0.224968 1 0.5 0 1
34 1 7.03463 37.5739 0 86.3006 37.5739 0 188.384 421.487 -138.289 88.3043 0.420779 0.907163 1 0.5 0 1
35 1 77.1967 70.6538 0 -2.0693 70.6538 0 -584.81 211.302 -77.2789 76.0562 -0.999396 0.0347456 1 0.5 0 1
36 1 45.6822 77.9 0 45.6822 -1.36604 0 -685.81 -352.742 -29.5959 -35.1713 -0.483026 -0.875606 1 0.5 0 1
37 1 72.7872 39.8391 0 72.7872 39.8391 0 -366.31 -181.209 48.7808 54.0213 0.889454 0.457025 1 0.5 0 1
38 1 23.6611 56.512 0 102.927 56.512 0 -233.323 -472.746 16.5351 -6.46302 0.529532 0.84829 1 0.5 0 1
39 1 27.8965 79.0945 0 27.8965 -0.171469 0 15.4722 260.658 70.2034 -71.2143 0.702034 -0.712143 1 0.5 0 1
40 1 55.4697 73.6057 0 -23.7963 -5.66031 0 283.927 -905.479 -64.0366 4.65526 -0.956328 0.292296 1 0.5 0 1
41 1 68.4337 49.4189 0 68.4337 49.4189 0 539.96 67.5397 -34.4847 124.093 0.812563 -0.582874 1 0.5 0 1
42 1 4.28676 65.6667 0 4.28676 65.6667 0 -151.858 156.252 -74.5189 166.641 -0.96199 -0.273084 1 0.5 0 1
43 1 73.9957 63.8262 0 -5.2703 63.8262 0 -224.315 -535.712 -134.249 13.8188 -0.568665 0.822569 1 0.5 0 1
44 1 64.161 11.4603 0 64.161 90.7263 0 -351.414 534.573 -96.5841 -84.7795 -0.94107 0.338212 1 0.5 0 1
45 1 16.2297 32.3398 0 16.2297 32.3398 0 85.5486 -54.4482 -105.685 -93.9628 0.715161 -0.698959 1 0.5 0 1
46 1 12.0735 29.0001 0 12.0735 29.0001 0 509.971 -178.375 114.149 194.115 0.0937228 0.995598 1 0.5 0 1
47 1 13.2106 66.3097 0 13.2106 -12.9563 0 387.822 484.584 -96.3357 34.8372 0.753571 -0.657367 1 0.5 0 1
48 1 36.8897 46.3481 0 36.8897 46.3481 0 194.176 -414.287 147.215 -68.4111 -0.978095 0.20816 1 0.5 0 1
49 1 7.25136 15.4268 0 86.5174 94.6928 0 15.4819 366.105 -102.005 46.2823 0.997565 -0.06974 1 0.5 0 1
50 1 66.5619 26.314 0 66.5619 26.314 0 -597.226 316.998 26.3027 -39.0918 -0.331662 0.943398 1 0.5 0 1
51 1 78.702 11.2979 0 -0.563973 11.2979 0 635.579 -1058.15 -32.5255 40.9521 -0.978512 0.206189 1 0.5 0 1
52 1 13.9907 14.0535 0 93.2567 14.0535 0 -238.503 578.303 27.8731 23.2596 0.986725 -0.162397 1 0.5 0 1
53 1 38.3186 10.3784 0 38.3186 89.6444 0 449.561 394.1 21.4745 -9.54672 -0.557589 0.830117 1 0.5 0 1
54 1 53.4565 27.4843 0 53.4565 27.4843 0 -467.518 -151.994 48.9934 131.365 0.938517 -0.345234 1 0.5 0 1
55 1 11.7435 7.08089 0 91.0095 86.3469 0 586.343 -1290.27 19.0672 156.102 0.897175 0.441675 1 0.5 0 1
56 1 35.0503 45.4903 0 35.0503 45.4903 0 -322.8 -19.5938 115.971 43.3738 -0.888004 -0.459835 1 0.5 0 1
57 1 18.7482 71.5764 0 18.7482 71.5764 0 168.194 -284.009 -54.1393 -39.8246 -0.928823 -0.370523 1 0.5 0 1
58 1 13.0066 9.8617 0 13.0066 9.8617 0 -1209.31 -561.289 -37.4572 77.317 -0.836853 -0.547428 1 0.5 0 1
59 1 67.9166 21.4288 0 67.9166 21.4288 0 -419.581 -153.488 53.8608 11.6876 -0.455577 0.890197 1 0.5 0 1
60 1 60.0653 34.2211 0 60.0653 34.2211 0 -444.414 -194.493 -21.5664 20.4803 0.994857 -0.101288 1 0.5 0 1
61 1 61.2936 37.8466 0 61.2936 37.8466 0 162.631 21.5252 29.5862 -35.5011 0.624558 0.780978 1 0.5 0 1
62 1 49.5293 12.0001 0 49.5293 12.0001 0 -313.683 178.329 56.1914 -18.9651 0.650747 -0.759295 1 0.5 0 1
63 1 62.0079 60.3866 0 -17.2581 60.3866 0 -112.723 -1086.09 89.4033 -16.08 -0.62859 -0.777737 1 0.5 0 1
64 1 59.3218 52.0402 0 59.3218 52.0402 0 878.824 -262.591 -5.51184 99.848 -0.0551184 0.99848 1 0.5 0 1
65 1 72.6039 70.3038 0 72.6039 70.3038 0 -510.119 280.278 124.299 75.1862 -0.251786 0.967783 1 0.5 0 1
66 1 65.8205 69.4044 0 65.8205 69.4044 0 241.222 -302.539 39.8618 113.733 0.632772 0.774338 1 0.5 0 1
67 1 54.3795 32.3439 0 54.3795 32.3439 0 400.569 -50.3008 -1.31668 -17.1487 0.92253 0.385926 1 0.5 0 1
68 1 49.7579 53.1711 0 49.7579 53.1711 0 -575.651 -750.915 83.9801 -32.9016 0.907436 0.420191 1 0.5 0 1
69 1 26.5727 67.9567 0 26.5727 67.9567 0 -61.9273 -0.328352 131.324 5.26719 -0.837299 -0.546745 1 0.5 0 1
70 1 28.7402 12.5229 0 28.7402 91.7889 0 -494.895 446.86 69.0007 72.3802 0.690007 0.723802 1 0.5 0 1
71 1 34.4577 41.8457 0 34.4577 41.8457 0 242.866 -218.518 44.1647 -53.5732 -0.625701 -0.780063 1 0.5 0 1
72 1 0.625017 65.7834 0 0.625017 65.7834 0 441.998 -9.88117 -8.91169 -51.8727 -0.940485 -0.339835 1 0.5 0 1
73 1 72.7319 10.5557 0 72.7319 10.5557 0 -227.123 476.123 50.1969 49.7371 -0.443518 -0.896265 1 0.5 0 1
74 1 67.0676 63.8214 0 67.0676 63.8214 0 7.16963 95.241 -125.105 32.3834 0.946058 0.323996 1 0.5 0 1
75 1 0.654585 36.1443 0 0.654585 36.1443 0 386.609 -231.691 -236.519 99.7934 -0.993471 -0.114087 1 0.5 0 1
76 1 78.1064 25.516 0 -1.15959 25.516 0 781.16 456.377 30.5531 36.6146 -0.970865 0.239628 1 0.5 0 1
77 1 6.03587 23.28 0 6.03587 23.28 0 -149.13 119.847 -52.5594 -32.4721 -0.240161 0.970733 1 0.5 0 1
78 1 29.9701 42.6572 0 29.9701 42.6572 0 -25.4518 -52.0585 -68.8689 -39.685 -0.898608 0.438752 1 0.5 0 1
79 1 25.6705 74.1692 0 25.6705 74.1692 0 506.91 100.716 30.3011 -30.1781 -0.962709 -0.270538 1 0.5 0 1
80 1 31.0574 31.1773 0 31.0574 -48.0887 0 -224.332 116.236 -44.8902 -75.5197 -0.652536 -0.757758 1 0.5 0 1
81 1 24.4302 36.346 0 103.696 36.346 0 140.277 -432.01 59.1596 37.4466 0.953679 0.300827 1 0.5 0 1
82 1 8.86633 36.4912 0 8.86633 36.4912 0 -672.279 331.196 -84.4171 53.6075 -0.844171 0.536075 1 0.5 0 1
83 1 40.9172 42.9065 0 40.9172 42.9065 0 11.8864 -195.959 -10.3652 -46.0767 0.891259 0.453495 1 0.5 0 1
84 1 78.6278 43.7952 0 -0.638154 43.7952 0 729.073 -229.936 38.9714 5.76937 -0.997608 -0.0691179 1 0.5 0 1
85 1 24.9571 67.4892 0 24.9571 -11.7768 0 9.25303 239.031 -164.149 5.27457 0.487407 -0.873175 1 0.5 0 1
86 1 19.3077 75.2836 0 19.3077 -3.98238 0 -806.932 1089.73 -2.7983 1.38627 -0.921311 -0.388827 1 0.5 0 1
87 1 44.8036 40.6066 0 44.8036 40.6066 0 -368.407 -150.987 -54.5389 84.4988 -0.497921 0.867222 1 0.5 0 1
88 1 54.1675 34.4573 0 54.1675 34.4573 0 270.536 187.202 -22.7043 36.6793 -0.431485 0.90212 1 0.5 0 1
89 1 19.5446 64.1503 0 19.5446 64.1503 0 626.206 828.902 -28.7325 7.53976 0.462019 0.88687 1 0.5 0 1
90 1 19.2549 38.1197 0 19.2549 38.1197 0 822.455 -179.36 7.75106 236.153 -0.753775 -0.657133 1 0.5 0 1
91 1 3.6495 52.6458 0 3.6495 -26.6202 0 -360.96 328.25 -21.9349 22.4263 -0.147933 -0.988997 1 0.5 0 1
92 1 4.70049 52.7386 0 4.70049 52.7386 0 11.9631 -341.202 -26.0919 6.48585 -1 -0.000360448 1 0.5 0 1
93 1 3.69981 44.4898 0 3.69981 44.4898 0 672.365 105.748 53.0977 5.62099 -0.888564 -0.458752 1 0.5 0 1
94 1 74.8833 33.9142 0 74.8833 33.9142 0 252.771 -262.139 63.4368 71.7927 0.235104 0.97197 1 0.5 0 1
95 1 68.0209 44.7884 0 68.0209 44.7884 0 -60.7271 -451.929 -111.016 421.031 0.910172 0.41423 1 0.5 0 1
96 1 58.0213 34.1315 0 58.0213 34.1315 0 719.609 396.161 -4.81356 -71.1133 0.547554 -0.83677 1 0.5 0 1
97 1 67.1358 27.1506 0 67.1358 27.1506 0 65.7251 857.973 -10.9111 -28.5539 -0.699434 -0.714697 1 0.5 0 1
98 1 71.2377 3.51801 0 -8.02831 82.784 0 -360.741 335.948 116.195 12.7596 0.898192 0.439603 1 0.5 0 1
99 1 45.2962 21.7444 0 45.2962 21.7444 0 -758.292 31.6792 -81.9655 22.0973 -0.978915 -0.204269 1 0.5 0 1
100 1 75.313 41.5186 0 75.313 41.5186 0 -104.319 -356.189 105.105 1.47277 0.865673 -0.50061 1 0.5 0 1
101 1 46.4482 23.2251 0 46.4482 23.2251 0 -267.31 272.81 -86.6655 -68.7164 0.2295 -0.973309 1 0.5 0 1
102 1 2.18438 41.3984 0 2.18438 41.3984 0 -909.159 -473.588 -25.7519 12.9657 -0.97763 0.21033 1 0.5 0 1
103 1 18.091 57.5194 0 18.091 57.5194 0 -386.868 34.2924 -25.4881 133.352 -0.741039 0.671461 1 0.5 0 1
104 1 54.0663 33.3803 0 54.0663 112.646 0 1111.95 -288.011 82.4081 90.5686 0.748609 0.663011 1 0.5 0 1
105 1 60.0414 65.6203 0 -19.2246 -13.6457 0 605.123 -402.548 -87.0966 -27.5749 0.118544 -0.992949 1 0.5 0 1
106 1 31.2709 37.0264 0 31.2709 37.0264 0 -70.7484 288.861 11.05 -91.4776 -0.906094 -0.423076 1 0.5 0 1
107 1 68.1939 31.2239 0 68.1939 31.2239 0 15.2399 299.208 -44.859 -99.0791 -0.803423 0.595409 1 0.5 0 1
108 1 3.29224 25.0702 0 3.29224 104.336 0 299.751 -448.939 31.3621 98.5359 0.338578 0.940938 1 0.5 0 1
109 1 73.3918 64.7397 0 -5.87423 64.7397 0 86.3825 939.545 -100.31 -40.8227 -0.757361 0.652996 1 0.5 0 1
110 1 13.4418 39.029 0 13.4418 39.029 0 -65.9336 541.436 84.8819 9.33006 0.763762 0.645498 1 0.5 0 1
111 1 14.3152 32.6879 0 14.3152 32.6879 0 -703.785 145.42 -117.43 -94.3452 0.987525 0.157464 1 0.5 0 1
112 1 23.2699 37.6458 0 23.2699 37.6458 0 360.889 206.717 12.6006 -5.83592 -0.801352 -0.598192 1 0.5 0 1
113 1 47.8622 75.7155 0 -31.4038 -3.55053 0 23.982 433.312 -13.5167 4.64891 -0.833888 0.551933 1 0.5 0 1
114 1 12.6054 45.8678 0 12.6054 45.8678 0 -506.073 58.023 -6.34994 91.7389 -0.0533143 0.998578 1 0.5 0 1
115 1 72.9892 67.4459 0 -6.27675 -11.8201 0 404.444 283.362 -16.1842 288.786 -0.990231 0.139439 1 0.5 0 1
116 1 25.1653 75.1052 0 25.1653 -4.16076 0 420.377 256.78 70.5751 -26.702 -0.322695 -0.946503 1 0.5 0 1
117 1 68.8781 61.4733 0 68.8781 61.4733 0 317.335 -824.852 175.721 199.676 0.508192 0.861244 1 0.5 0 1
118 1 59.0298 33.7506 0 59.0298 33.7506 0 -147.673 -340.883 -41.9973 167.25 -0.692721 -0.721205 1 0.5 0 1
119 1 13.6942 18.1051 0 13.6942 18.1051 0 21.3043 -18.1112 41.1065 -98.4547 0.320134 0.947372 1 0.5 0 1
120 1 76.5885 24.2452 0 76.5885 24.2452 0 -264.426 209.484 23.0717 -18.8229 0.87995 -0.475066 1 0.5 0 1
121 1 53.6104 28.5557 0 -25.6556 28.5557 0 -169.972 -90.5774 -178.731 -46.8966 -0.977993 0.208638 1 0.5 0 1
122 1 36.3704 57.9799 0 36.3704 57.9799 0 6.50783 127.658 62.5669 91.2706 -0.0343089 0.999411 1 0.5 0 1
123 1 9.20823 29.3577 0 9.20823 29.3577 0 -80.5293 517.846 -47.0785 -3.80365 -0.677982 0.735079 1 0.5 0 1
124 1 52.9019 20.0249 0 52.9019 20.0249 0 358.438 -235.158 3.15553 97.9604 -0.10483 0.99449 1 0.5 0 1
125 1 56.1282 17.9813 0 56.1282 17.9813 0 -498.445 -171.196 -31.5193 110.251 0.982912 0.184074 1 0.5 0 1
126 1 70.9536 69.6446 0 70.9536 69.6446 0 -300.187 163.436 -22.3227 -16.3878 0.850715 0.525626 1 0.5 0 1
127 1 62.8819 17.8349 0 62.8819 97.1009 0 -156.092 89.6461 -72.5067 62.9579 0.295135 0.955455 1 0.5 0 1
128 1 45.238 42.7422 0 -34.028 42.7422 0 411.402 -271.474 -28.2184 114.052 -0.95716 -0.28956 1 0.5 0 1
129 1 63.0697 60.1377 0 63.0697 -19.1283 0 -36.0241 665.709 12.9073 -42.0222 0.82014 -0.572162 1 0.5 0 1
130 1 70.9691 53.7599 0 70.9691 -25.5061 0 -408.624 -614.211 -2.55295 -15.8437 0.674276 -0.738479 1 0.5 0 1
131 1 75.4695 67.7014 0 -3.79648 67.7014 0 -4.37527 18.9949 -13.3737 51.5954 -0.521656 0.853156 1 0.5 0 1
132 1 5.0529 12.9725 0 5.0529 92.2385 0 154.266 85.5185 43.8726 20.3344 -0.837243 0.546831 1 0.5 0 1
133 1 67.5069 22.5696 0 67.5069 101.836 0 967.804 -43.9928 -47.0729 57.492 -0.403109 0.915152 1 0.5 0 1
134 1 50.9023 69.4487 0 50.9023 69.4487 0 -154.571 -453.43 -83.3225 85.5433 -0.783004 -0.622017 1 0.5 0 1
135 1 62.4586 5.03946 0 62.4586 84.3055 0 45.7985 338.387 -48.4036 -11.7519 -0.949387 0.314108 1 0.5 0 1
136 1 32.4262 14.7698 0 32.4262 94.0358 0 214.183 311.865 74.002 67.2585 0.74002 0.672585 1 0.5 0 1
137 1 28.194 42.3039 0 107.46 42.3039 0 936.964 -158.418 -23.1044 9.60958 0.985754 0.168196 1 0.5 0 1
138 1 48.018 28.7102 0 48.018 28.7102 0 132.781 -385.872 -87.232 -48.8935 -0.87232 -0.488935 1 0.5 0 1
139 1 30.1876 64.8716 0 30.1876 -14.3944 0 -200.311 -70.8414 -38.8058 -19.0876 -0.838724 -0.544556 1 0.5 0 1
140 1 21.4096 74.5668 0 21.4096 -4.69922 0 304.263 -1055.19 -25.3687 118.65 -0.563029 -0.826437 1 0.5 0 1
141 1 24.6295 37.3894 0 24.6295 37.3894 0 -112.583 -165.348 -45.3074 -85.2316 -0.85643 -0.516264 1 0.5 0 1
142 1 24.0766 57.4499 0 24.0766 57.4499 0 461.875 -458.174 -6.05868 32.5635 -0.538729 0.842479 1 0.5 0 1
143 1 34.2947 8.91919 0 34.2947 88.1852 0 -393.171 -355.813 -44.2478 89.6779 -0.442478 0.896779 1 0.5 0 1
144 1 51.4942 6.49097 0 51.4942 6.49097 0 822.265 120.842 -23.4832 -108.845 0.249195 -0.968453 1 0.5 0 1
145 1 64.6812 68.0548 0 64.6812 68.0548 0 -258.222 -620.826 -68.0373 -173.448 -0.747915 0.663794 1 0.5 0 1
146 1 20.0752 73.0206 0 20.0752 -6.24541 0 -384.471 135.52 147.494 54.503 -0.180852 -0.98351 1 0.5 0 1
147 1 0.699825 18.3005 0 79.9658 18.3005 0 -430.341 -153.684 -26.9072 -78.9472 -0.257242 -0.966347 1 0.5 0 1
148 1 6.2151 11.2043 0 85.4811 11.2043 0 -357.829 580.941 102.357 96.3464 0.902347 -0.43101 1 0.5 0 1
149 1 75.1073 22.948 0 75.1073 102.214 0 226.048 -102.929 -87.6565 93.6773 0.664412 0.747366 1 0.5 0 1
150 1 72.4475 32.1467 0 -6.81853 32.1467 0 177.42 52.9323 88.4055 -130.139 -0.456944 0.889496 1 0.5 0 1
151 1 5.78139 61.8091 0 85.0474 -17.4569 0 71.6334 -763.028 52.6985 -41.6401 0.383592 -0.923502 1 0.5 0 1
152 1 22.2974 32.6852 0 22.2974 111.951 0 32.4768 -286.191 29.2507 95.6263 0.292507 0.956263 1 0.5 0 1
153 1 72.6968 56.4874 0 72.6968 56.4874 0 257.124 -159.109 -17.2797 120.229 0.998333 -0.0577104 1 0.5 0 1
154 1 3.49266 48.6395 0 3.49266 48.6395 0 -313.686 143.336 29.5303 -90.2752 -0.3741 -0.927388 1 0.5 0 1
155 1 44.776 8.64229 0 -34.49 8.64229 0 312.821 44.4934 -34.9954 53.5169 -0.973518 0.228611 1 0.5 0 1
156 1 74.8617 46.4541 0 74.8617 46.4541 0 -952.139 -282.859 -25.5924 -170.326 -0.745321 0.666705 1 0.5 0 1
157 1 65.8928 13.9767 0 -13.3732 13.9767 0 368.203 -728.477 -73.3897 152.94 -0.706434 0.707779 1 0.5 0 1
158 1 71.2481 35.635 0 -8.01788 35.635 0 544.296 -194.887 -23.85 349.916 -0.991778 -0.127972 1 0.5 0 1
159 1 77.0782 65.9073 0 77.0782 65.9073 0 -436.56 620.294 71.7302 81.8421 0.457669 0.889123 1 0.5 0 1
160 1 24.8863 5.45354 0 24.8863 5.45354 0 -84.2473 2.32177 7.84847 -99.6915 0.0784847 -0.996915 1 0.5 0 1
161 1 77.0435 17.327 0 -2.22248 17.327 0 -112.842 366.663 -65.5209 -16.8534 -0.214904 -0.976635 1 0.5 0 1
162 1 7.02596 48.6182 0 7.02596 48.6182 0 543.291 -207.949 40.4474 66.5316 -0.714001 -0.700144 1 0.5 0 1
163 1 64.6124 43.3509 0 64.6124 43.3509 0 530.119 -265.633 -146.406 129.289 0.442317 -0.896859 1 0.5 0 1
164 1 31.3291 56.7867 0 31.3291 56.7867 0 -10.2999 211.121 29.9917 -41.1345 0.97146 -0.237203 1 0.5 0 1
165 1 45.9896 15.3016 0 45.9896 15.3016 0 321 571.438 -16.78 -98.5821 -0.1678 -0.985821 1 0.5 0 1
166 1 35.5389 31.0404 0 35.5389 31.0404 0 164.831 433.526 -80.9264 27.1868 -0.915434 0.402468 1 0.5 0 1
167 1 55.4924 23.0464 0 55.4924 23.0464 0 369.006 1046.31 75.7599 -20.1152 0.9396 0.342273 1 0.5 0 1
168 1 32.1142 78.2046 0 32.1142 78.2046 0 -586.133 880.209 -47.6715 87.9058 -0.476715 0.879058 1 0.5 0 1
169 1 31.2394 1.61611 0 31.2394 80.8821 0 -238.183 161.242 -38.051 53.4334 -0.330042 0.943966 1 0.5 0 1
170 1 71.4351 66.5791 0 71.4351 66.5791 0 -311.196 173.998 -110.04 73.2814 0.0461719 0.998934 1 0.5 0 1
171 1 8.45852 43.2381 0 87.7245 43.2381 0 664.041 -53.8152 57.8858 -104.197 -0.0319098 -0.999491 1 0.5 0 1
172 1 27.7941 52.9231 0 27.7941 -26.3429 0 -533.952 -144.816 -18.6279 -13.3807 -0.560584 -0.828097 1 0.5 0 1
173 1 49.3266 23.159 0 49.3266 23.159 0 36.7122 -209.276 31.4273 -10.883 0.428724 -0.903436 1 0.5 0 1
174 1 13.4839 42.9301 0 13.4839 42.9301 0 -116.223 -287.265 -31.8836 -104.993 -0.512478 0.8587 1 0.5 0 1
175 1 15.226 79.2394 0 15.226 -0.0265611 0 -1118.78 383.782 18.4227 -35.0542 0.943389 -0.331688 1 0.5 0 1
176 1 22.7138 52.3539 0 22.7138 52.3539 0 -162.146 -1188.27 28.8962 102.42 -0.990434 -0.137986 1 0.5 0 1
177 1 28.9251 69.7786 0 28.9251 69.7786 0 214.271 76.1187 41.2135 -8.29387 -0.0823819 0.996601 1 0.5 0 1
178 1 63.4135 22.1944 0 -15.8525 101.46 0 -448.156 -102.49 -103.944 -39.6614 -0.896754 0.442529 1 0.5 0 1
179 1 16.0328 60.5861 0 16.0328 -18.6799 0 -805.919 -60.6622 92.0204 74.4324 -0.781346 -0.624099 1 0.5 0 1
180 1 77.1806 39.6806 0 77.1806 39.6806 0 -891.073 52.092 96.103 -3.02032 -0.220852 0.975307 1 0.5 0 1
181 1 56.603 27.9792 0 56.603 27.9792 0 229.98 -690.522 -127.33 181.981 -0.534353 0.845261 1 0.5 0 1
182 1 29.0125 33.6642 0 29.0125 112.93 0 -729.953 15.49 -80.9177 41.6591 -0.998681 -0.0513449 1 0.5 0 1
183 1 36.5721 61.4362 0 36.5721 -17.8298 0 -676.972 -3.84017 -7.83489 -52.5595 0.65915 -0.752011 1 0.5 0 1
184 1 66.6596 37.5916 0 66.6596 37.5916 0 -242.836 635.471 -108.988 253.931 -0.893298 0.449465 1 0.5 0 1
185 1 48.8941 41.3471 0 48.8941 41.3471 0 -644.566 -742.38 -5.10768 88.4834 -0.93591 -0.352239 1 0.5 0 1
186 1 25.834 50.7965 0 25.834 50.7965 0 -343.877 11.6044 119.154 -17.3822 0.121329 0.992612 1 0.5 0 1
187 1 69.9686 16.484 0 -9.29745 95.75 0 -192.112 627.633 43.2168 99.7085 0.116866 0.993148 1 0.5 0 1
188 1 75.3751 57.4521 0 75.3751 57.4521 0 -375.434 163.124 107.041 158.953 0.917941 -0.396716 1 0.5 0 1
189 1 8.38674 12.995 0 8.38674 12.995 0 1003.68 624.878 -76.9308 42.7504 0.789057 -0.61432 1 0.5 0 1
190 1 7.56116 65.5922 0 7.56116 65.5922 0 -270.558 -593.042 -4.59843 48.7947 -0.122881 0.992421 1 0.5 0 1
191 1 17.8055 74.6021 0 97.0715 -4.66388 0 685.905 -297.034 84.7476 -5.9833 0.897565 0.440883 1 0.5 0 1
192 1 65.5088 32.4498 0 65.5088 32.4498 0 -673.338 369.161 127.879 -234.584 0.405972 -0.913886 1 0.5 0 1
193 1 5.93268 3.52472 0 5.93268 3.52472 0 -256.592 -207.755 -90.2712 -57.631 -0.746016 -0.665928 1 0.5 0 1
194 1 45.3237 76.896 0 45.3237 76.896 0 224.006 267.292 -106.259 -4.0722 -0.875526 0.483172 1 0.5 0 1
195 1 49.0584 26.0039 0 49.0584 26.0039 0 64.1763 -409.91 80.7992 11.9038 0.998232 -0.0594375 1 0.5 0 1
196 1 62.5524 34.4629 0 62.5524 34.4629 0 8.99238 127.769 -22.1648 55.4632 -0.386072 -0.922468 1 0.5 0 1
197 1 7.0298 68.6924 0 7.0298 68.6924 0 17.9205 219.94 -86.5165 39.2301 -0.712727 0.701442 1 0.5 0 1
198 1 76.0527 43.0532 0 76.0527 43.0532 0 362.429 -359.905 58.9339 -91.2997 -0.00864605 -0.999963 1 0.5 0 1
199 1 6.88371 24.5701 0 6.88371 24.5701 0 -479.563 146.159 -5.93047 -72.0284 -0.806374 -0.591405 1 0.5 0 1
200 1 17.8561 64.169 0 17.8561 64.169 0 -166.723 695.586 133.914 -55.9063 0.93067 0.365859 1 0.5 0 1
201 1 22.6404 54.5193 0 22.6404 -24.7467 0 -591.96 -1075.29 -77.1247 -29.6823 -0.715669 -0.69844 1 0.5 0 1
202 1 52.4671 14.9377 0 -26.7989 14.9377 0 556.891 345.469 -57.1337 20.3244 -0.591825 -0.806067 1 0.5 0 1
203 1 10.3434 67.8108 0 10.3434 67.8108 0 -178.268 53.3839 -105.081 -24.45 -0.831972 0.554818 1 0.5 0 1
204 1 10.7464 24.7286 0 10.7464 24.7286 0 -266.393 -499.833 21.0462 41.431 0.361595 0.932335 1 0.5 0 1
205 1 28.8792 62.444 0 28.8792 62.444 0 -318.929 543.13 107.716 166.697 -0.980289 -0.197569 1 0.5 0 1
206 1 78.5785 68.0182 0 -0.687462 -11.2478 0 716.028 -98.4482 -50.7904 -137.678 -0.153724 -0.988114 1 0.5 0 1
207 1 18.1013 58.6228 0 18.1013 58.6228 0 -290.337 -304.119 46.0319 -50.505 0.47608 0.879402 1 0.5 0 1
208 1 56.2636 51.9935 0 56.2636 51.9935 0 -93.0832 -189.478 -52.8361 38.4623 -0.974886 -0.222703 1 0.5 0 1
209 1 50.9169 40.4195 0 50.9169 40.4195 0 -104.802 -69.113 36.7692 1.93889 -0.347343 0.937738 1 0.5 0 1
210 1 15.9632 3.94918 0 15.9632 83.2152 0 130.962 190.571 11.1611 -111.187 -0.860555 -0.509357 1 0.5 0 1
211 1 64.0912 36.7847 0 64.0912 36.7847 0 -497.659 -62.5911 69.889 -297.83 0.205451 0.978667 1 0.5 0 1
212 1 13.5329 77.9539 0 92.7989 -1.31211 0 -402.312 188.705 30.9035 -7.62778 0.995185 -0.0980152 1 0.5 0 1
213 1 34.6561 54.2301 0 34.6561 54.2301 0 1098.3 -194.065 56.2468 -31.9648 0.975314 -0.220821 1 0.5 0 1
214 1 48.4337 16.9742 0 48.4337 96.2402 0 -332.857 -129.679 -15.7408 98.7534 -0.157408 0.987534 1 0.5 0 1
215 1 13.8322 67.1956 0 13.8322 -12.0704 0 -595.177 -298.238 44.007 27.1141 0.810633 0.585555 1 0.5 0 1
216 1 30.1762 26.7546 0 30.1762 106.021 0 910.207 1097.94 -5.03346 101.452 -0.0636777 0.997971 1 0.5 0 1
217 1 41.4142 24.6976 0 41.4142 24.6976 0 -243.84 -732.522 -12.8384 23.2426 -0.504359 -0.863494 1 0.5 0 1
218 1 29.6325 44.8091 0 29.6325 44.8091 0 -340.28 740.754 -18.9816 37.5857 0.857306 0.514807 1 0.5 0 1
219 1 53.4375 39.9922 0 53.4375 39.9922 0 -185.111 -7.4708 23.2496 86.1815 0.310587 -0.950545 1 0.5 0 1
220 1 70.248 73.5373 0 70.248 -5.72867 0 -90.3994 295.774 -98.0139 -61.3307 0.280252 -0.959927 1 0.5 0 1
221 1 36.825 59.3463 0 36.825 59.3463 0 814.866 -558.286 -92.8724 37.3732 0.0222291 0.999753 1 0.5 0 1
222 1 32.7213 56.8503 0 32.7213 -22.4157 0 0.624607 322.607 -72.2728 -42.9381 -0.400773 -0.916177 1 0.5 0 1
223 1 76.5412 35.0544 0 -2.7248 35.0544 0 546.82 118.454 99.5905 -73.2291 0.268459 0.963291 1 0.5 0 1
224 1 70.5538 62.5172 0 -8.71216 62.5172 0 90.0881 344.697 17.3575 27.8663 0.198758 0.980049 1 0.5 0 1
225 1 2.69825 64.3659 0 81.9643 -14.9001 0 201.307 -185.02 -43.915 -118.796 0.149106 -0.988821 1 0.5 0 1
226 1 39.3611 10.3727 0 39.3611 10.3727 0 579.773 1315.61 43.0298 -57.3042 -0.614946 -0.788569 1 0.5 0 1
227 1 3.10266 21.6912 0 82.3687 21.6912 0 61.3411 731.031 -63.7169 50.1666 0.902288 0.431133 1 0.5 0 1
228 1 3.61584 72.4334 0 3.61584 72.4334 0 -193.76 -184.301 -84.9347 -15.9013 -0.864657 -0.502363 1 0.5 0 1
229 1 59.7327 29.9656 0 59.7327 29.9656 0 734.515 279.294 -296.143 37.865 0.815229 0.579139 1 0.5 0 1
230 1 60.9913 28.8255 0 60.9913 108.092 0 154.082 273.344 -63.4367 -5.44566 -0.838315 0.545186 1 0.5 0 1
231 1 55.6697 62.2887 0 55.6697 62.2887 0 -4.08683 335.726 14.1081 126.29 0.764661 0.644432 1 0.5 0 1
232 1 39.077 52.6518 0 39.077 -26.6142 0 254.668 -512.89 127.869 -8.10569 0.505589 -0.862774 1 0.5 0 1
233 1 19.9375 43.2638 0 19.9375 43.2638 0 -562.974 -281.326 -91.9578 -11.4394 -0.977548 -0.210712 1 0.5 0 1
234 1 30.1335 68.1025 0 30.1335 -11.1635 0 -57.8334 569.61 -70.112 3.28582 -0.948844 0.315745 1 0.5 0 1
235 1 23.0164 64.3964 0 23.0164 64.3964 0 -866.803 101.045 -25.4866 -89.4216 -0.312159 0.95003 1 0.5 0 1
236 1 70.5151 70.5883 0 70.5151 70.5883 0 -99.0549 -842.111 37.3283 -41.9416 0.917709 0.397254 1 0.5 0 1
237 1 52.3991 27.3267 0 52.3991 27.3267 0 -807.147 -493.205 -61.4369 2.8418 0.885698 -0.464261 1 0.5 0 1
238 1 38.086 54.6091 0 38.086 54.6091 0 320.57 54.3911 -79.2223 69.0212 -0.0717159 0.997425 1 0.5 0 1
239 1 7.98695 37.2456 0 87.253 37.2456 0 583.371 106.99 140.832 -21.0033 -0.585601 0.8106 1 0.5 0 1
240 1 18.7912 36.1443 0 18.7912 36.1443 0 -715.709 3.40651 91.3855 -37.5801 0.52491 -0.851157 1 0.5 0 1
241 1 47.8645 55.0078 0 47.8645 55.0078 0 173.519 -110.58 8.24515 -59.4511 0.222472 -0.974939 1 0.5 0 1
242 1 68.4335 68.4577 0 68.4335 -10.8083 0 309.158 -211.067 95.2912 17.3703 0.958663 -0.284544 1 0.5 0 1
243 1 74.5405 68.1766 0 -4.72548 68.1766 0 291.585 -86.1522 -100.132 -108.001 -0.809036 0.587759 1 0.5 0 1
244 1 36.1773 43.7493 0 36.1773 43.7493 0 -285.908 140.168 -57.4868 38.8571 -0.58832 0.808628 1 0.5 0 1
245 1 55.7802 41.6631 0 55.7802 41.6631 0 -376.124 552.982 92.0288 39.11 0.902624 -0.43043 1 0.5 0 1
246 1 27.8255 36.0494 0 27.8255 36.0494 0 -625.784 -122.031 87.7442 39.5693 0.945473 -0.325701 1 0.5 0 1
247 1 66.5393 50.3198 0 66.5393 -28.9462 0 -343.009 -741.387 8.21877 -10.6004 -0.623317 -0.781969 1 0.5 0 1
248 1 61.0368 8.72128 0 -18.2292 87.9873 0 -75.8757 795.55 -98.3486 -208.052 -0.759188 0.650872 1 0.5 0 1
249 1 58.7752 17.0715 0 58.7752 17.0715 0 931.702 179.23 11.3344 -167.11 0.990179 -0.139804 1 0.5 0 1
250 1 16.2557 53.1099 0 95.5217 53.1099 0 -284.611 -132.293 -31.6047 96.1222 0.0567869 0.998386 1 0.5 0 1
251 1 47.1542 29.5776 0 47.1542 108.844 0 401.734 -478.36 20.7177 44.1703 0.0775548 0.996988 1 0.5 0 1
252 1 21.2634 64.2115 0 21.2634 64.2115 0 698.196 258.411 39.7411 -94.3803 -0.521741 0.853104 1 0.5 0 1
253 1 21.5506 54.5616 0 21.5506 54.5616 0 381.022 535.769 78.6863 -68.2318 0.559245 0.829003 1 0.5 0 1
254 1 42.25 69.897 0 42.25 69.897 0 380.47 73.3922 -32.3881 10.0462 0.475526 0.879702 1 0.5 0 1
255 1 11.1478 20.8475 0 90.4138 100.113 0 216.776 15.9834 -38.4361 33.4144 0.311435 0.950267 1 0.5 0 1
256 1 71.9245 39.2514 0 -7.34154 39.2514 0 -46.3819 -571.525 27.7125 -85.5949 -0.389062 -0.921211 1 0.5 0 1
257 1 19.0182 27.3388 0 19.0182 106.605 0 190.654 246.321 -60.1892 61.951 -0.684886 0.72865 1 0.5 0 1
258 1 36.796 79.0947 0 36.796 -0.171349 0 -213.203 -746.601 57.5758 -81.762 0.575758 -0.81762 1 0.5 0 1
259 1 14.0383 19.8033 0 93.3043 19.8033 0 250.741 -374.599 -49.8414 169.612 0.157222 0.987563 1 0.5 0 1
260 1 11.559 39.9721 0 90.825 39.9721 0 -90.9044 856.21 25.7442 -66.6462 0.501351 -0.865244 1 0.5 0 1
261 1 14.7091 17.4956 0 14.7091 17.4956 0 549.693 49.6446 13.3713 -82.5782 0.262884 -0.964828 1 0.5 0 1
262 1 41.8816 12.7523 0 121.148 12.7523 0 -165.742 -1034.77 88.1647 -50.3356 0.996526 -0.0832789 1 0.5 0 1
263 1 67.8288 78.5752 0 -11.4372 -0.690754 0 -592.978 -555.162 -99.4848 10.1375 -0.994848 0.101375 1 0.5 0 1
264 1 10.544 27.8704 0 89.81 27.8704 0 89.4694 -156.212 117.095 54.1846 0.997074 0.0764459 1 0.5 0 1
265 1 14.9642 1.00854 0 14.9642 80.2745 0 -673.869 313.198 95.3798 -52.6205 0.413346 0.910574 1 0.5 0 1
266 1 55.3487 46.5409 0 55.3487 46.5409 0 -501.668 -6.31347 7.47368 18.5178 0.603353 -0.797474 1 0.5 0 1
267 1 15.0026 6.97645 0 15.0026 6.97645 0 -557.728 297.691 -23.2463 -79.5165 -0.975391 0.220481 1 0.5 0 1
268 1 73.4901 68.3257 0 73.4901 68.3257 0 87.8319 692.352 -24.4444 0.68302 -0.469729 -0.882811 1 0.5 0 1
269 1 42.4304 7.7406 0 121.696 7.7406 0 -113.007 68.0168 84.6538 -53.2329 0.846538 -0.532329 1 0.5 0 1
270 1 22.5987 6.39534 0 101.865 6.39534 0 135.978 171.611 89.1448 -40.3085 0.968896 -0.247468 1 0.5 0 1
271 1 40.7427 37.6269 0 40.7427 37.6269 0 73.2928 496.994 55.4758 -83.2012 0.554758 -0.832012 1 0.5 0 1
272 1 59.0063 29.2507 0 59.0063 29.2507 0 -445.015 154.077 82.0879 121.632 0.568134 0.822936 1 0.5 0 1
273 1 59.3541 43.8407 0 59.3541 43.8407 0 -468.534 389.11 -7.62223 58.8178 0.995245 -0.0974011 1 0.5 0 1
274 1 31.4147 64.1362 0 31.4147 -15.1298 0 -66.8279 -388.059 86.6465 -33.0809 -0.547489 -0.836813 1 0.5 0 1
275 1 52.12 77.5903 0 52.12 -1.67569 0 -789.787 318.908 68.687 61.5638 0.948726 0.3161 1 0.5 0 1
276 1 60.2393 39.0873 0 60.2393 39.0873 0 123.294 -594.369 -19.2441 -44.0427 0.994918 0.100686 1 0.5 0 1
277 1 54.6042 43.049 0 -24.6618 43.049 0 -139.898 160.743 171.221 48.2902 -0.936202 -0.351463 1 0.5 0 1
278 1 7.60097 73.7167 0 7.60097 73.7167 0 -652.99 -201.185 155.1 80.8242 -0.710998 0.703194 1 0.5 0 1
279 1 6.64617 30.5175 0 85.9122 30.5175 0 -167.076 25.914 0.855993 58.9051 0.969681 -0.244374 1 0.5 0 1
280 1 65.0005 71.0369 0 65.0005 -8.22909 0 298.158 -390.888 -60.421 143.462 -0.479012 -0.877808 1 0.5 0 1
281 1 62.4397 54.3566 0 62.4397 54.3566 0 883.592 39.2025 102.32 20.6864 0.999962 0.00874097 1 0.5 0 1
282 1 38.1015 75.5397 0 38.1015 -3.72634 0 -291.398 317.196 15.9575 -98.7186 0.159575 -0.987186 1 0.5 0 1
283 1 4.00803 14.9178 0 4.00803 94.1838 0 395.948 137.636 46.486 96.0959 -0.479272 0.877666 1 0.5 0 1
284 1 67.2261 8.79463 0 -12.0399 88.0606 0 239.634 -646.537 -46.5287 41.6664 -0.734892 0.678184 1 0.5 0 1
285 1 72.6777 31.0733 0 72.6777 31.0733 0 -375.68 -153.33 5.58206 25.698 0.285012 -0.958524 1 0.5 0 1