ITEM: TIMESTEP
90000
ITEM: NUMBER OF ATOMS
4000
ITEM: BOX BOUNDS pp pp pp
0.0000000000000000e+00 7.9266000000000005e+01
0.0000000000000000e+00 7.9266000000000005e+01
-5.0000000000000000e-01 5.0000000000000000e-01
ITEM: ATOMS id type x y z xu yu zu vx vy fx fy mux muy mu radius omegaz mass
1 1 48.7799 62.2297 0 48.7799 62.2297 0 -480.526 -531.7 28.0842 95.9754 0.280842 0.959754 1 0.5 0 1
2 1 27.6833 65.8424 0 27.6833 -13.4236 0 -581.8 -289.159 46.1048 53.0666 -0.529572 -0.848265 1 0.5 0 1
3 1 54.3967 72.4767 0 54.3967 -6.78926 0 -256.026 1.63435 42.952 39.812 0.286933 -0.957951 1 0.5 0 1
4 1 57.5906 25.0421 0 57.5906 104.308 0 173.756 363.94 114.699 75.7035 -0.0882646 0.996097 1 0.5 0 1
5 1 51.1503 30.3673 0 51.1503 30.3673 0 -520.673 -524.762 -62.5681 -3.77497 -0.000571868 -1 1 0.5 0 1
6 1 22.2378 20.6173 0 22.2378 20.6173 0 270.313 244.003 -101.932 11.2182 -0.997777 -0.0666483 1 0.5 0 1
7 1 67.3066 45.2846 0 67.3066 45.2846 0 309.201 -368.863 -57.5616 46.4592 0.0711786 0.997464 1 0.5 0 1
8 1 20.7862 74.5221 0 20.7862 -4.74388 0 321.087 134.696 120.751 -25.4584 0.0779502 -0.996957 1 0.5 0 1
9 1 42.2498 21.1648 0 42.2498 21.1648 0 -651.14 150.658 62.0677 60.1408 0.998401 0.0565295 1 0.5 0 1
10 1 67.1286 64.6259 0 67.1286 64.6259 0 783.513 34.1548 -35.4751 -2.90409 -0.803969 -0.594671 1 0.5 0 1
11 1 56.1494 52.4026 0 -23.1166 52.4026 0 -26.7503 -295.236 -98.7051 16.0408 -0.987051 0.160408 1 0.5 0 1
12 1 61.5333 63.4331 0 61.5333 63.4331 0 80.5159 280.516 147.231 40.7656 0.999786 0.0206952 1 0.5 0 1
13 1 30.6628 52.0386 0 30.6628 52.0386 0 -470.282 -600.399 240.892 -31.9465 -0.282131 -0.959376 1 0.5 0 1
14 1 56.9388 46.6992 0 -22.3272 46.6992 0 -724.888 70.52 50.2308 26.5809 -0.588204 -0.808713 1 0.5 0 1
15 1 41.1243 57.6956 0 41.1243 57.6956 0 -207.067 -712.564 -77.1978 -0.558521 -0.985937 -0.167115 1 0.5 0 1
16 1 60.8257 11.3817 0 -18.4403 11.3817 0 -601.137 -374.048 0.239758 -26.5701 -0.752325 -0.658792 1 0.5 0 1
17 1 35.3835 48.1952 0 35.3835 48.1952 0 -25.5069 -383.358 -67.5496 3.59116 -0.760662 0.649148 1 0.5 0 1
18 1 30.6326 18.2667 0 30.6326 18.2667 0 -208.872 288.635 -12.0985 -38.8356 -0.973832 -0.227269 1 0.5 0 1
19 1 26.7882 48.9497 0 26.7882 48.9497 0 94.462 8.98653 -41.7773 -90.0171 -0.690671 -0.723169 1 0.5 0 1
20 1 24.3004 58.7113 0 24.3004 58.7113 0 68.3837 360.319 76.9154 -31.1855 0.983999 0.178173 1 0.5 0 1
21 1 50.5077 62.7854 0 50.5077 -16.4806 0 -292.03 403.215 7.0877 29.5073 -0.589679 0.807638 1 0.5 0 1
22 1 54.4791 23.0385 0 54.4791 23.0385 0 -29.4617 538.974 18.2456 -19.175 0.659938 -0.75132 1 0.5 0 1
23 1 29.2363 75.8169 0 29.2363 -3.44911 0 756.346 687.93 78.097 -54.7638 0.715954 -0.698147 1 0.5 0 1
24 1 66.329 65.2649 0 66.329 -14.0011 0 446.653 -185.041 -4.72517 -13.3558 0.517253 -0.855833 1 0.5 0 1
25 1 69.3029 72.1909 0 -9.96311 -7.07506 0 -457.029 -139.053 -45.0176 -47.5215 -0.921233 -0.389012 1 0.5 0 1
26 1 32.2294 58.6517 0 32.2294 -20.6143 0 24.9349 -363.332 -28.2627 -60.2309 0.304131 -0.95263 1 0.5 0 1
27 1 39.1206 37.4048 0 39.1206 37.4048 0 -1226.85 148.111 -33.9163 72.1879 -0.587697 0.809081 1 0.5 0 1
28 1 15.9015 56.5217 0 15.9015 56.5217 0 159.497 227.046 8.57993 -5.37921 -0.316618 0.948553 1 0.5 0 1
29 1 77.9733 36.7684 0 -1.29273 36.7684 0 414.985 -67.5288 -59.9454 5.97687 -0.955509 0.294963 1 0.5 0 1
30 1 50.5068 29.4344 0 50.5068 108.7 0 -54.4912 397.275 129.984 -33.1592 0.484526 0.874777 1 0.5 0 1
31 1 20.5618 36.3885 0 20.5618 36.3885 0 43.018 283.449 -79.01 -7.55 -0.0921085 -0.995749 1 0.5 0 1
32 1 25.7911 52.0258 0 25.7911 52.0258 0 196.952 1318.65 -8.45903 -23.1772 -0.524676 0.851302 1 0.5 0 1
33 1 34.2745 53.8303 0 34.2745 -25.4357 0 712.122 -275.688 -62.5677 42.8719 0.277373 -0.960762 1 0.5 0 1
34 1 1.75459 32.7184 0 81.0206 32.7184 0 58.178 293.174 91.037 9.74893 0.955744 0.294199 1 0.5 0 1
35 1 2.40843 72.439 0 2.40843 72.439 0 714.769 374.611 -70.1048 -71.3114 -0.701048 -0.713114 1 0.5 0 1
36 1 48.3685 4.41041 0 48.3685 4.41041 0 -329.027 -538.506 -25.2718 -93.3473 -0.219305 -0.975656 1 0.5 0 1
37 1 72.4498 39.4301 0 72.4498 39.4301 0 -112.93 869.688 -133.441 -265.903 0.586808 0.809726 1 0.5 0 1
38 1 23.3298 51.3717 0 102.596 51.3717 0 -200.901 462.084 67.2188 65.2681 0.487661 0.873033 1 0.5 0 1
39 1 22.753 5.92004 0 22.753 5.92004 0 -330.56 121.639 -16.1983 -14.5121 0.672683 -0.739931 1 0.5 0 1
40 1 62.5314 72.587 0 -16.7346 -6.67902 0 627.608 -99.5003 -84.9662 7.66226 -0.998051 -0.062406 1 0.5 0 1
41 1 68.5222 49.5817 0 68.5222 49.5817 0 185.893 152.471 36.8851 -11.3258 0.556662 -0.830739 1 0.5 0 1
42 1 5.88086 68.4084 0 5.88086 68.4084 0 564.435 -263.842 5.74543 -46.3661 -0.217926 -0.975965 1 0.5 0 1
43 1 74.9963 61.6475 0 -4.26967 61.6475 0 -595.518 122.425 -115.405 22.2174 -0.701239 0.712927 1 0.5 0 1
44 1 66.4525 10.9364 0 66.4525 90.2024 0 -545.62 797.088 -47.2026 35.6068 -0.739214 0.673471 1 0.5 0 1
45 1 15.341 38.0808 0 15.341 38.0808 0 -287.055 581.183 30.248 -95.3156 0.30248 -0.953156 1 0.5 0 1
46 1 13.0872 25.6759 0 13.0872 25.6759 0 -358.701 -174.484 -28.9621 38.6134 0.159876 0.987137 1 0.5 0 1
47 1 9.67798 69.3404 0 9.67798 -9.9256 0 -191.143 -56.2196 75.1323 -42.0467 0.354459 -0.935072 1 0.5 0 1
48 1 36.1284 47.0572 0 36.1284 47.0572 0 -54.6699 867.322 -48.1851 -3.15853 -0.971755 -0.235993 1 0.5 0 1
49 1 4.58848 15.3656 0 83.8545 94.6316 0 511.29 -577.67 5.82816 9.79107 0.996194 -0.0871643 1 0.5 0 1
50 1 68.084 26.3927 0 68.084 26.3927 0 -100.567 -655.641 -20.5828 46.0613 -0.209796 0.977745 1 0.5 0 1
51 1 2.60473 10.5148 0 2.60473 10.5148 0 30.2461 253.082 -86.2061 77.8817 -0.999923 0.0124488 1 0.5 0 1
52 1 11.5044 14.4774 0 90.7704 14.4774 0 406.676 661.782 266.444 82.122 0.958631 -0.284653 1 0.5 0 1
53 1 39.1692 5.26102 0 39.1692 84.527 0 121.715 475.88 -13.3794 99.1009 -0.133794 0.991009 1 0.5 0 1
54 1 49.3964 29.3146 0 49.3964 29.3146 0 -371.898 -738.547 81.66 -52.5561 0.908883 -0.417051 1 0.5 0 1
55 1 10.2971 4.27813 0 89.5631 83.5441 0 95.9495 91.2466 94.9045 73.0076 0.993284 -0.115702 1 0.5 0 1
56 1 34.2067 46.0052 0 34.2067 46.0052 0 -454.434 -59.7277 -116.205 7.68486 -0.868252 -0.496124 1 0.5 0 1
57 1 18.6552 72.3984 0 18.6552 72.3984 0 427.933 -599.955 -3.55494 -115.87 -0.995242 -0.0974288 1 0.5 0 1
58 1 14.6445 15.1217 0 14.6445 15.1217 0 489.802 379.27 -62.7841 -54.8544 -0.826844 -0.562431 1 0.5 0 1
59 1 66.3111 17.7036 0 66.3111 17.7036 0 -44.2132 131.595 -5.70981 26.7246 -0.138198 0.990405 1 0.5 0 1
60 1 58.3781 37.0981 0 58.3781 37.0981 0 986.837 220.833 -76.4073 -34.1811 0.982467 0.186437 1 0.5 0 1
61 1 61.0141 36.9678 0 61.0141 36.9678 0 -228.901 454.03 41.5457 -49.7354 0.851667 0.524084 1 0.5 0 1
62 1 48.1689 12.8923 0 48.1689 12.8923 0 -381.568 -212.442 -15.4553 1.88712 0.729419 -0.684068 1 0.5 0 1
63 1 63.1394 64.1598 0 -16.1266 64.1598 0 361.678 -124.657 -14.1465 22.6603 -0.497948 -0.867207 1 0.5 0 1
64 1 59.221 45.3316 0 59.221 45.3316 0 167.728 -92.0132 -16.2076 60.1946 0.451472 0.892285 1 0.5 0 1
65 1 73.1709 66.2072 0 73.1709 66.2072 0 177.174 -104.175 56.5052 -56.1799 0.15753 0.987514 1 0.5 0 1
66 1 64.9139 68.7511 0 64.9139 68.7511 0 -295.399 -406.807 54.0933 -9.1599 0.670094 0.742276 1 0.5 0 1
67 1 54.3673 28.5687 0 54.3673 28.5687 0 -908.084 30.6821 89.2396 2.86465 0.701696 0.712476 1 0.5 0 1
68 1 46.5019 49.4708 0 46.5019 49.4708 0 82.2888 -20.2379 -30.6554 59.3837 0.642803 0.766032 1 0.5 0 1
69 1 26.4016 69.6593 0 26.4016 69.6593 0 -1144.77 482.248 -229.912 -25.7416 -0.993818 -0.111018 1 0.5 0 1
70 1 23.9373 6.5736 0 23.9373 85.8396 0 16.1242 43.671 17.3011 95.0222 0.449048 0.893508 1 0.5 0 1
71 1 34.5849 44.16 0 34.5849 44.16 0 -131.329 256.935 -2.24804 -132.781 -0.591024 -0.806654 1 0.5 0 1
72 1 1.60052 69.9178 0 1.60052 69.9178 0 -162.24 136.159 -36.2638 -30.2359 -0.993063 0.117583 1 0.5 0 1
73 1 77.5031 17.5705 0 77.5031 17.5705 0 371.134 55.7468 -43.313 -91.5854 -0.473386 -0.880855 1 0.5 0 1
74 1 66.2038 64.1857 0 66.2038 64.1857 0 319.666 42.2523 22.49 -98.7637 0.943055 -0.332637 1 0.5 0 1
75 1 0.459036 35.7766 0 0.459036 35.7766 0 671.519 631.241 -62.9589 -46.9391 -0.995529 -0.0944589 1 0.5 0 1
76 1 5.08138 24.5325 0 5.08138 24.5325 0 287.789 91.1266 0.146042 -73.2976 -0.891898 -0.452237 1 0.5 0 1
77 1 9.43861 19.9075 0 9.43861 19.9075 0 -222.689 429.529 -50.4556 81.8303 -0.163848 0.986486 1 0.5 0 1
78 1 29.2904 43.2498 0 29.2904 43.2498 0 121.723 -318.297 49.7971 13.429 -0.990841 0.135032 1 0.5 0 1
79 1 31.7726 77.354 0 31.7726 77.354 0 -145.142 -51.1375 -97.6135 -51.1054 -0.977855 -0.209282 1 0.5 0 1
80 1 35.0871 37.4827 0 35.0871 -41.7833 0 -615.122 -38.0093 -29.5769 -100.69 -0.606266 -0.795262 1 0.5 0 1
81 1 21.5904 36.2443 0 100.856 36.2443 0 -86.5389 348.271 22.6061 -106.943 0.93458 0.355752 1 0.5 0 1
82 1 11.9539 31.7412 0 11.9539 31.7412 0 348.642 0.458686 -66.6703 22.007 -0.843001 0.537911 1 0.5 0 1
83 1 35.637 39.3193 0 35.637 39.3193 0 23.8162 -76.955 -39.1023 62.0533 0.766142 0.642672 1 0.5 0 1
84 1 78.2762 43.311 0 -0.989849 43.311 0 -510.355 -213.343 -24.6414 -22.5295 -0.985872 0.167498 1 0.5 0 1
85 1 24.6954 68.6053 0 24.6954 -10.6607 0 137.643 -208.222 244.151 178.034 -0.116537 -0.993186 1 0.5 0 1
86 1 23.5734 78.6004 0 23.5734 -0.665604 0 -457.866 642.803 -64.1453 -70.3158 -0.684451 -0.729059 1 0.5 0 1
87 1 49.1183 34.9047 0 49.1183 34.9047 0 -392.046 -424.027 -19.6232 51.2306 0.0171983 0.999852 1 0.5 0 1
88 1 55.8026 29.4597 0 55.8026 29.4597 0 505.08 564.808 -37.0384 0.268661 -0.511073 0.859537 1 0.5 0 1
89 1 19.8047 63.7873 0 19.8047 63.7873 0 794.831 -1755.45 5.69742 77.9194 0.426274 0.904594 1 0.5 0 1
90 1 23.032 39.0023 0 23.032 39.0023 0 -453.78 635.68 -72.3942 -45.5127 -0.790251 -0.612783 1 0.5 0 1
91 1 2.12389 56.4134 0 2.12389 -22.8526 0 -57.7202 -576.894 38.1207 -92.449 0.381207 -0.92449 1 0.5 0 1
92 1 11.1031 50.9105 0 11.1031 50.9105 0 550.541 -247.257 -102.394 -177.999 -0.990349 0.138596 1 0.5 0 1
93 1 3.23642 45.3119 0 3.23642 45.3119 0 607.007 -55.1558 76.9266 -135.957 -0.676381 -0.736552 1 0.5 0 1
94 1 75.6857 32.957 0 75.6857 32.957 0 182.762 -673.066 25.9138 -66.3237 -0.731077 0.682295 1 0.5 0 1
95 1 67.4888 44.2985 0 67.4888 44.2985 0 -835.457 -543.803 -58.2603 -38.876 0.962881 0.269927 1 0.5 0 1
96 1 57.5918 36.432 0 57.5918 36.432 0 -637.614 406.009 52.781 -14.328 0.42463 -0.905367 1 0.5 0 1
97 1 66.9504 28.8914 0 66.9504 28.8914 0 -55.8535 357.857 -193.671 -222.677 -0.585934 -0.810359 1 0.5 0 1
98 1 64.0846 78.2418 0 -15.1814 78.2418 0 246.575 21.7102 74.995 46.824 0.420169 0.907446 1 0.5 0 1
99 1 49.925 23.4621 0 49.925 23.4621 0 -971.034 -198.411 19.0839 20.3321 -0.972283 -0.233807 1 0.5 0 1
100 1 74.96 41.079 0 74.96 41.079 0 -133.739 308.509 57.8969 -168.846 0.69628 -0.71777 1 0.5 0 1
101 1 43.0993 30.0382 0 43.0993 30.0382 0 -283.192 78.034 203.469 -135.962 0.535575 -0.844487 1 0.5 0 1
102 1 1.99633 41.0812 0 1.99633 41.0812 0 -209.68 797.488 -150.336 93.1692 -0.763095 0.646286 1 0.5 0 1
103 1 19.9372 57.9916 0 19.9372 57.9916 0 629.799 -57.2322 5.48649 22.5103 -0.794839 0.60682 1 0.5 0 1
104 1 54.7928 29.5283 0 54.7928 108.794 0 -873.328 712.475 39.2176 92.015 0.828677 0.559727 1 0.5 0 1
105 1 59.8158 72.2501 0 -19.4502 -7.01594 0 674.134 -405.603 -106.106 -83.1541 0.033519 -0.999438 1 0.5 0 1
106 1 33.5937 42.6289 0 33.5937 42.6289 0 1045.72 -1260.41 -66.1566 -67.7362 -0.92027 -0.391284 1 0.5 0 1
107 1 66.6816 31.5103 0 66.6816 31.5103 0 -105.703 74.106 126.519 -15.7593 -0.745622 0.666369 1 0.5 0 1
108 1 1.97929 18.727 0 1.97929 97.993 0 -106.961 -88.4824 -6.05281 68.045 0.375991 0.926623 1 0.5 0 1
109 1 75.5343 62.56 0 -3.73167 62.56 0 341.673 181.009 -42.2536 -19.2178 -0.384374 0.923178 1 0.5 0 1
110 1 10.9936 41.153 0 10.9936 41.153 0 105.57 -140.886 82.999 48.7389 0.58343 0.812164 1 0.5 0 1
111 1 9.20696 30.4207 0 9.20696 30.4207 0 913.94 152.145 -93.0345 70.2642 0.96672 0.255836 1 0.5 0 1
112 1 27.1299 39.3369 0 27.1299 39.3369 0 66.1451 101.391 -160.888 14.1319 -0.302553 -0.953133 1 0.5 0 1
113 1 54.2891 71.454 0 -24.9769 -7.81199 0 -432.341 35.0793 -104.911 -93.3907 -0.90652 0.422163 1 0.5 0 1
114 1 12.2437 40.8897 0 12.2437 40.8897 0 -255.654 90.3686 43.7961 -164.623 0.450487 0.892783 1 0.5 0 1
115 1 75.9952 67.7505 0 -3.27076 -11.5155 0 -1434 1445.63 173.347 -273.509 -0.943196 0.332236 1 0.5 0 1
116 1 22.9791 3.49541 0 22.9791 3.49541 0 -214.391 712.754 61.4123 -32.3409 0.491714 -0.870757 1 0.5 0 1
117 1 68.2154 60.0862 0 68.2154 60.0862 0 53.1701 750.306 -104.47 118.791 0.509371 0.860547 1 0.5 0 1
118 1 60.1214 36.1406 0 60.1214 36.1406 0 133.816 260.15 110.197 -140.933 -0.360849 -0.932624 1 0.5 0 1
119 1 10.5453 14.6759 0 10.5453 14.6759 0 953.393 -178.792 -96.625 178.461 0.625931 0.779879 1 0.5 0 1
120 1 74.8997 24.9086 0 74.8997 24.9086 0 213.299 -64.4854 71.425 -58.7557 0.88638 -0.462958 1 0.5 0 1
121 1 55.8667 27.3892 0 -23.3993 27.3892 0 428.303 -468.036 -8.84098 55.0547 -0.996182 0.0872965 1 0.5 0 1
122 1 34.9514 54.6997 0 34.9514 54.6997 0 992.664 -114.479 25.0422 -11.3336 -0.70339 0.710804 1 0.5 0 1
123 1 12.1081 29.4334 0 12.1081 29.4334 0 -460.397 -693.758 -116.92 29.4423 -0.925042 0.379865 1 0.5 0 1
124 1 55.1311 14.6314 0 55.1311 14.6314 0 -449.337 -87.6854 -7.27317 46.2266 -0.529586 0.848256 1 0.5 0 1
125 1 51.3406 17.405 0 51.3406 17.405 0 1074.62 711.911 70.5187 62.3048 0.95584 -0.293887 1 0.5 0 1
126 1 71.4972 67.7922 0 71.4972 67.7922 0 -102.547 554.914 -20.5666 -84.1267 0.98608 0.166274 1 0.5 0 1
127 1 62.8296 14.4216 0 62.8296 93.6876 0 -180.768 556.571 -0.334025 -164.196 -0.0619041 0.998082 1 0.5 0 1
128 1 50.0266 47.3767 0 -29.2394 47.3767 0 -465.298 -563.549 -98.8881 -14.8711 -0.988881 -0.148711 1 0.5 0 1
129 1 61.9008 62.4416 0 61.9008 -16.8244 0 227.346 -481.939 58.6148 -32.0448 0.985633 -0.168898 1 0.5 0 1
130 1 68.3363 52.7588 0 68.3363 -26.5072 0 518.829 -508.839 86.2334 -36.5408 0.896253 -0.443543 1 0.5 0 1
131 1 77.1194 63.9576 0 -2.1466 63.9576 0 9.06573 148.086 -58.3057 55.1429 -0.634901 0.772594 1 0.5 0 1
132 1 9.53913 11.6841 0 9.53913 90.9501 0 1032.05 -407.656 -172.377 18.0093 -0.99979 0.0205112 1 0.5 0 1
133 1 68.8238 20.7161 0 68.8238 99.9821 0 136.274 -216.662 112.617 48.9346 -0.4757 0.879608 1 0.5 0 1
134 1 58.3241 69.5947 0 58.3241 69.5947 0 176.832 -986.851 -22.8382 -18.4942 -0.972371 0.233441 1 0.5 0 1
135 1 64.5923 3.92356 0 64.5923 83.1896 0 663.703 -504.631 42.1724 65.7425 -0.996137 -0.0878149 1 0.5 0 1
136 1 28.4907 7.96584 0 28.4907 87.2318 0 865.427 -557.594 85.8593 51.2657 0.858593 0.512657 1 0.5 0 1
137 1 25.6623 41.874 0 104.928 41.874 0 -182.943 -187.404 48.9631 103.118 0.906637 0.421911 1 0.5 0 1
138 1 50.4084 31.1694 0 50.4084 31.1694 0 498.247 57.7595 49.3442 27.7091 -0.801325 -0.598229 1 0.5 0 1
139 1 35.7255 68.1325 0 35.7255 -11.1335 0 -521.634 751.598 -40.0498 45.3142 -0.878364 -0.477992 1 0.5 0 1
140 1 21.8027 74.9217 0 21.8027 -4.34429 0 2.23231 -411.197 -50.8093 -20.9619 -0.537221 -0.843442 1 0.5 0 1
141 1 27.5114 37.3086 0 27.5114 37.3086 0 150.256 -131.483 -68.1611 3.50229 -0.963476 0.267794 1 0.5 0 1
142 1 27.1005 53.8617 0 27.1005 53.8617 0 -780.91 112.626 -18.8429 91.0681 -0.274976 0.961451 1 0.5 0 1
143 1 33.9334 2.6094 0 33.9334 81.8754 0 -349.502 276.208 25.9317 98.7529 -0.246221 0.969214 1 0.5 0 1
144 1 53.4285 13.3308 0 53.4285 13.3308 0 -35.4992 435.128 57.7841 17.3674 -0.538068 -0.842901 1 0.5 0 1
145 1 68.166 66.2489 0 68.166 66.2489 0 -253.575 -181.083 -34.4849 100.381 -0.994662 0.103182 1 0.5 0 1
146 1 19.5236 74.1999 0 19.5236 -5.06609 0 -1121.1 -218.4 -58.5087 55.6269 -0.49601 -0.868317 1 0.5 0 1
147 1 2.84923 20.7261 0 82.1152 20.7261 0 -104.769 -102.795 -13.8744 38.1204 -0.0728748 -0.997341 1 0.5 0 1
148 1 3.69662 12.4066 0 82.9626 12.4066 0 330.126 -326.313 -32.3706 -62.1998 0.372228 -0.928141 1 0.5 0 1
149 1 68.1564 19.8575 0 68.1564 99.1235 0 370.277 -318.189 63.2908 26.8261 0.489319 0.872105 1 0.5 0 1
150 1 74.7023 32.5889 0 -4.56369 32.5889 0 206.097 -319.496 -75.3039 9.84221 -0.357341 0.933974 1 0.5 0 1
151 1 3.86144 66.0575 0 83.1274 -13.2085 0 -390.602 445.75 135.688 -45.6979 0.609608 -0.792703 1 0.5 0 1
152 1 20.0772 23.7624 0 20.0772 103.028 0 629.173 101.843 -5.86574 118.222 0.667223 0.744858 1 0.5 0 1
153 1 71.8267 53.8795 0 71.8267 53.8795 0 713.225 380.478 -26.2775 121.604 0.975686 -0.219175 1 0.5 0 1
154 1 3.22036 48.318 0 3.22036 48.318 0 -318.187 -292.076 -20.2951 -60.5152 -0.0938771 -0.995584 1 0.5 0 1
155 1 51.7477 8.0541 0 -27.5183 8.0541 0 -59.6942 178.77 -94.0727 33.9165 -0.940727 0.339165 1 0.5 0 1
156 1 74.4204 45.9926 0 74.4204 45.9926 0 342.287 -413.915 -29.5112 -255.189 0.27894 0.960308 1 0.5 0 1
157 1 67.629 12.7178 0 -11.637 12.7178 0 347.303 -86.7036 94.9208 -47.4195 -0.886137 0.463424 1 0.5 0 1
158 1 71.1446 35.2395 0 -8.12144 35.2395 0 -427.134 -82.3923 -3.50382 -80.3732 -0.970436 -0.24136 1 0.5 0 1
159 1 75.9228 61.104 0 75.9228 61.104 0 -43.2502 -80.0618 42.0169 34.1003 0.647937 0.761694 1 0.5 0 1
160 1 23.6605 11.9453 0 23.6605 11.9453 0 -150.168 178.879 92.8993 -18.5409 -0.293603 -0.955927 1 0.5 0 1
161 1 77.9604 22.9564 0 -1.30565 22.9564 0 419.171 -160.383 47.9661 -95.1027 0.236725 -0.971577 1 0.5 0 1
162 1 6.9227 50.3933 0 6.9227 50.3933 0 165.94 145.769 0.24804 20.1988 -0.655244 -0.755417 1 0.5 0 1
163 1 64.0833 42.6799 0 64.0833 42.6799 0 -463.385 -255.354 20.5235 27.5774 0.449386 -0.893338 1 0.5 0 1
164 1 29.1305 58.8216 0 29.1305 58.8216 0 -279.916 565.45 -120.107 -77.1009 0.990984 -0.133979 1 0.5 0 1
165 1 43.9152 23.3713 0 43.9152 23.3713 0 458.873 100.705 17.7197 -79.3753 -0.206526 -0.978441 1 0.5 0 1
166 1 42.9937 28.984 0 42.9937 28.984 0 566.532 -46.8894 -120.501 2.28844 -0.837033 0.547153 1 0.5 0 1
167 1 52.1415 23.106 0 52.1415 23.106 0 240.085 -684.229 34.9997 -66.8268 0.998404 0.0564731 1 0.5 0 1
168 1 39.4692 73.6638 0 39.4692 73.6638 0 93.7318 122.19 19.477 -25.3114 -0.894467 0.447135 1 0.5 0 1
169 1 35.442 77.1604 0 35.442 77.1604 0 -257.993 -254.589 -30.3522 64.7485 -0.607755 0.794125 1 0.5 0 1
170 1 72.4169 64.2873 0 72.4169 64.2873 0 167.894 1.86429 5.8453 107.917 0.299518 0.954091 1 0.5 0 1
171 1 6.53555 45.4848 0 85.8016 45.4848 0 -594.253 213.855 31.4662 -19.9327 0.116666 -0.993171 1 0.5 0 1
172 1 30.2783 57.7258 0 30.2783 -21.5402 0 652.983 285.252 2.86021 -3.68802 -0.422744 -0.906249 1 0.5 0 1
173 1 48.6783 28.2364 0 48.6783 28.2364 0 -94.0901 263.545 -4.35241 -59.916 -0.199485 -0.979901 1 0.5 0 1
174 1 13.086 40.2797 0 13.086 40.2797 0 -120.322 417.935 -2.82543 0.0410579 -0.562035 0.827114 1 0.5 0 1
175 1 15.5367 2.98659 0 15.5367 2.98659 0 187.183 148.681 54.061 -46.239 0.907701 -0.419617 1 0.5 0 1
176 1 25.8776 53.9345 0 25.8776 53.9345 0 721.186 -862.482 -67.1754 -1.30049 -0.876874 -0.480721 1 0.5 0 1
177 1 28.2113 69.8169 0 28.2113 69.8169 0 720.879 559.27 -80.0294 -119.131 -0.859786 0.510654 1 0.5 0 1
178 1 67.6582 21.8774 0 -11.6078 101.143 0 45.7123 526.863 -134.286 -30.0096 -0.996931 -0.0782798 1 0.5 0 1
179 1 18.3301 61.3726 0 18.3301 -17.8934 0 92.8313 -446.466 107.221 -66.1904 -0.955864 -0.29381 1 0.5 0 1
180 1 76.8702 39.2298 0 76.8702 39.2298 0 -278.476 -735.823 244.101 -84.0349 -0.692817 0.721113 1 0.5 0 1
181 1 58.4908 26.4098 0 58.4908 26.4098 0 42.2471 1069.12 -184.679 -139.962 -0.293027 0.956104 1 0.5 0 1
182 1 32.2716 34.1934 0 32.2716 113.459 0 456.786 -759.084 -78.9093 22.0152 -0.957671 0.287866 1 0.5 0 1
183 1 34.6184 64.8071 0 34.6184 -14.4589 0 -199.172 -418.084 -47.6997 -65.521 0.32016 -0.947363 1 0.5 0 1
184 1 66.4346 37.0203 0 66.4346 37.0203 0 327.99 -797.952 -116.268 109.379 -0.306447 0.951888 1 0.5 0 1
185 1 53.5528 41.8552 0 53.5528 41.8552 0 448.426 85.6541 57.904 195.18 -0.952533 -0.304436 1 0.5 0 1
186 1 29.596 49.3289 0 29.596 49.3289 0 -73.6416 -687.132 13.0277 59.3258 0.104702 0.994504 1 0.5 0 1
187 1 71.9584 11.992 0 -7.30763 91.258 0 -196.019 488.547 -4.14658 60.5156 -0.389239 0.921137 1 0.5 0 1
188 1 71.8183 59.6851 0 71.8183 59.6851 0 -88.5223 994.862 242.545 -104.809 0.49587 -0.868397 1 0.5 0 1
189 1 6.86925 11.5861 0 6.86925 11.5861 0 -122.766 -951.258 57.8298 -61.928 0.956032 -0.293262 1 0.5 0 1
190 1 5.67971 63.4491 0 5.67971 63.4491 0 -686.523 240.906 -74.403 40.7576 -0.200598 0.979674 1 0.5 0 1
191 1 17.8687 75.1289 0 97.1347 -4.13709 0 266.322 -486.73 -66.3458 -127.083 0.994403 0.105649 1 0.5 0 1
192 1 64.1141 31.8047 0 64.1141 31.8047 0 -193.713 -573.311 333.089 45.885 0.579418 -0.815031 1 0.5 0 1
193 1 11.0793 6.89569 0 11.0793 6.89569 0 643.454 -415.775 -34.8426 -77.8852 -0.935792 -0.352553 1 0.5 0 1
194 1 48.7075 70.5232 0 48.7075 70.5232 0 -91.6835 188.562 -27.611 33.2041 -0.311024 0.950402 1 0.5 0 1
195 1 43.0838 24.5203 0 43.0838 24.5203 0 351.651 546.445 96.4488 -26.4125 0.964488 -0.264125 1 0.5 0 1
196 1 62.5093 33.5377 0 62.5093 33.5377 0 -55.4689 1055.44 -38.0849 1.50657 -0.334764 -0.942302 1 0.5 0 1
197 1 9.89464 64.4751 0 9.89464 64.4751 0 56.4266 510.486 -91.5599 40.2094 -0.915599 0.402094 1 0.5 0 1
198 1 75.6501 42.5874 0 75.6501 42.5874 0 540.805 -563.472 61.7743 28.5897 0.41098 -0.911645 1 0.5 0 1
199 1 8.91399 27.2642 0 8.91399 27.2642 0 683.558 335.685 -190.07 -59.1614 -0.811006 -0.585038 1 0.5 0 1
200 1 17.95 63.369 0 17.95 63.369 0 -17.1526 -209.787 -34.8929 81.7501 0.452904 0.891559 1 0.5 0 1
201 1 24.1279 54.5767 0 24.1279 -24.6893 0 374.471 -11.4053 -69.8953 52.0872 -0.986977 -0.16086 1 0.5 0 1
202 1 54.9426 16.9713 0 -24.3234 16.9713 0 42.3503 613.668 88.2358 63.5317 -0.910844 -0.41275 1 0.5 0 1
203 1 13.7058 65.3183 0 13.7058 65.3183 0 54.7201 -1063.76 -64.1865 55.5133 -0.820996 0.570935 1 0.5 0 1
204 1 10.206 24.6878 0 10.206 24.6878 0 311.254 -187.981 59.4422 69.5901 0.468694 0.88336 1 0.5 0 1
205 1 26.9625 62.0004 0 26.9625 62.0004 0 -75.5642 -237.252 68.3835 28.3309 -0.998876 0.0474005 1 0.5 0 1
206 1 0.213855 71.5795 0 0.213855 -7.68655 0 384.495 340.533 11.142 35.8462 -0.753114 -0.65789 1 0.5 0 1
207 1 19.1317 58.6519 0 19.1317 58.6519 0 -39.2233 95.565 -85.6038 -3.60387 -0.230674 0.973031 1 0.5 0 1
208 1 60.4715 58.5988 0 60.4715 58.5988 0 124.884 -639.487 -88.0201 -38.5263 -0.779344 -0.626596 1 0.5 0 1
209 1 53.6133 35.2022 0 53.6133 35.2022 0 -448.477 340.149 -26.6786 15.8826 -0.857514 0.51446 1 0.5 0 1
210 1 15.4332 5.03661 0 15.4332 84.3026 0 282.157 29.6291 -180.739 -10.595 -0.883184 -0.469027 1 0.5 0 1
211 1 63.8729 36.054 0 63.8729 36.054 0 1392.88 -217.188 -92.8202 33.7781 -0.00602989 0.999982 1 0.5 0 1
212 1 10.5166 76.8619 0 89.7826 -2.40411 0 -277.728 30.847 50.3061 28.9717 0.993824 0.110972 1 0.5 0 1
213 1 33.3314 55.9475 0 33.3314 55.9475 0 373.51 797.205 -57.4351 -124.164 0.796205 -0.605027 1 0.5 0 1
214 1 48.724 10.7547 0 48.724 90.0207 0 339.42 769.925 -48.4989 81.917 -0.358795 0.933416 1 0.5 0 1
215 1 12.1706 65.1454 0 12.1706 -14.1206 0 77.6564 -108.488 48.6603 73.3742 0.920287 0.391245 1 0.5 0 1
216 1 28.3823 17.0023 0 28.3823 96.2683 0 612.053 116.326 64.1068 5.05376 0.463522 0.886085 1 0.5 0 1
217 1 44.0182 30.6737 0 44.0182 30.6737 0 -369.62 -474.953 -149.215 -18.1288 -0.417536 -0.90866 1 0.5 0 1
218 1 27.8168 44.4551 0 27.8168 44.4551 0 -245.494 172.327 -9.1994 -53.8587 0.915869 0.401478 1 0.5 0 1
219 1 51.9426 40.3267 0 51.9426 40.3267 0 -200.074 29.6924 52.2129 76.94 0.405924 -0.913907 1 0.5 0 1
220 1 67.5209 1.93333 0 67.5209 1.93333 0 215.533 -568.59 -8.35845 -53.2486 0.19011 -0.981763 1 0.5 0 1
221 1 38.5728 54.8561 0 38.5728 54.8561 0 58.1101 -98.6407 -54.0952 84.1053 -0.540952 0.841053 1 0.5 0 1
222 1 35.5157 62.8017 0 35.5157 -16.4643 0 -339.897 -261.103 -28.6476 -95.8088 -0.286476 -0.958088 1 0.5 0 1
223 1 76.3739 34.5733 0 -2.89214 34.5733 0 -992.031 -607.401 10.4831 -36.9149 0.156361 0.9877 1 0.5 0 1
224 1 71.0273 61.4272 0 -8.23871 61.4272 0 -361.914 598.748 -150.076 -26.4413 -0.168514 0.985699 1 0.5 0 1
225 1 78.813 69.8067 0 78.813 -9.45935 0 73.5816 135.526 -43.2624 -58.6256 0.495271 -0.868739 1 0.5 0 1
226 1 43.075 18.1091 0 43.075 18.1091 0 -216.44 249.484 -56.9697 -84.2549 -0.585367 -0.810769 1 0.5 0 1
227 1 1.00511 16.7086 0 80.2711 16.7086 0 579.687 2.71256 14.1281 100.734 0.99983 0.0184409 1 0.5 0 1
228 1 11.4594 72.8238 0 11.4594 72.8238 0 803.183 -553.168 -95.3948 -13.2813 -0.999197 -0.0400728 1 0.5 0 1
229 1 60.1632 28.4087 0 60.1632 28.4087 0 -167.939 -134.373 -59.1412 -4.12086 0.362454 0.932002 1 0.5 0 1
230 1 61.4819 26.9372 0 61.4819 106.203 0 77.1337 509.033 153.657 -318.38 -0.460776 0.887516 1 0.5 0 1
231 1 52.7655 58.237 0 52.7655 58.237 0 -542.556 422.622 77.2814 -1.03106 0.855351 0.518049 1 0.5 0 1
232 1 35.1027 57.0543 0 35.1027 -22.2117 0 -50.938 -622.742 17.9434 -89.7688 0.561274 -0.82763 1 0.5 0 1
233 1 28.292 40.5138 0 28.292 40.5138 0 453.791 -168.274 1.36809 -162.046 -0.979202 -0.20289 1 0.5 0 1
234 1 29.0886 70.3702 0 29.0886 -8.89583 0 21.4948 16.2205 -98.1046 18.5817 -0.96604 0.258391 1 0.5 0 1
235 1 22.8325 65.6274 0 22.8325 65.6274 0 -191.855 -615.361 -2.94222 100.223 -0.806844 0.590765 1 0.5 0 1
236 1 70.4391 68.4912 0 70.4391 68.4912 0 -181.681 -372.251 -50.9103 -28.7241 0.634673 0.772781 1 0.5 0 1
237 1 47.7926 27.5974 0 47.7926 27.5974 0 -201.278 -417.839 56.3972 -71.4684 0.79939 -0.600813 1 0.5 0 1
238 1 40.4287 47.4501 0 40.4287 47.4501 0 217.523 82.5606 -64.4217 75.1645 -0.811286 0.58465 1 0.5 0 1
239 1 9.32474 32.9143 0 88.5907 32.9143 0 538.292 33.8328 32.895 112.226 0.0846479 0.996411 1 0.5 0 1
240 1 19.5748 35.2902 0 19.5748 35.2902 0 1126.05 -865.079 -100.956 -8.79986 0.619176 -0.785252 1 0.5 0 1
241 1 47.2671 60.1382 0 47.2671 60.1382 0 614.597 -151.498 -65.9432 -127.28 -0.132518 -0.991181 1 0.5 0 1
242 1 68.802 67.2388 0 68.802 -12.0272 0 574.767 1019.62 99.3798 -5.41194 0.736652 -0.676272 1 0.5 0 1
243 1 77.8306 65.9512 0 -1.43544 65.9512 0 115.408 441.13 -66.5454 -43.7773 -0.979679 0.20057 1 0.5 0 1
244 1 41.9815 43.23 0 41.9815 43.23 0 77.0729 156.182 -91.9492 39.3109 -0.919492 0.393109 1 0.5 0 1
245 1 52.6735 38.121 0 52.6735 38.121 0 -459.933 326.933 -6.775 28.6659 0.954798 0.297256 1 0.5 0 1
246 1 24.6324 34.4593 0 24.6324 34.4593 0 325.177 247.729 95.5591 -29.578 0.920641 0.39041 1 0.5 0 1
247 1 65.2408 54.7441 0 65.2408 -24.5219 0 384.259 -383.625 71.3489 -11.5809 -0.0606199 -0.998161 1 0.5 0 1
248 1 61.808 9.64307 0 -17.458 88.9091 0 -132.592 47.0736 19.9838 -42.0329 -0.956879 0.290488 1 0.5 0 1
249 1 56.7928 17.3902 0 56.7928 17.3902 0 63.9337 -65.0161 59.9461 93.7155 0.996541 0.0830979 1 0.5 0 1
250 1 19.641 46.3656 0 98.907 46.3656 0 -507.044 -19.7881 -4.1301 116.619 -0.341339 0.93994 1 0.5 0 1
251 1 43.9291 25.3387 0 43.9291 104.605 0 -296.791 647.578 84.2315 9.83568 0.738351 0.674416 1 0.5 0 1
252 1 21.2162 65.2441 0 21.2162 65.2441 0 -1529.56 580.176 -52.284 -290.144 -0.702365 0.711817 1 0.5 0 1
253 1 18.4512 50.7127 0 18.4512 50.7127 0 159.19 387.375 -33.1842 1.58665 0.56818 0.822904 1 0.5 0 1
254 1 43.6353 63.791 0 43.6353 63.791 0 609.634 192.473 61.2176 37.9725 0.182859 0.983139 1 0.5 0 1
255 1 10.7178 15.9607 0 89.9838 95.2267 0 -74.2728 477.398 62.3156 10.8352 0.354733 0.934968 1 0.5 0 1
256 1 71.5853 38.791 0 -7.68074 38.791 0 -274.501 605.07 260.753 277.584 -0.851828 -0.523821 1 0.5 0 1
257 1 22.9868 24.0457 0 22.9868 103.312 0 146.603 -622.337 47.8221 73.181 -0.484854 0.874595 1 0.5 0 1
258 1 33.3424 6.36132 0 33.3424 6.36132 0 460.347 -241.874 -64.1696 -118.328 0.399241 -0.916846 1 0.5 0 1
259 1 10.7141 19.3753 0 89.9801 19.3753 0 -605.016 399.731 81.8157 67.3727 0.119149 0.992876 1 0.5 0 1
260 1 8.29524 42.7635 0 87.5612 42.7635 0 666.773 -257.353 17.3306 68.0353 0.558107 -0.829769 1 0.5 0 1
261 1 13.5822 21.3119 0 13.5822 21.3119 0 -63.3749 -1120.58 -40.4021 -44.7935 0.773452 -0.633854 1 0.5 0 1
262 1 34.4456 15.1136 0 113.712 15.1136 0 190.334 356.168 -25.09 -9.21662 0.95104 -0.309066 1 0.5 0 1
263 1 75.6816 78.6273 0 -3.58437 -0.638663 0 -338.983 -209.283 -102.865 -10.0264 -0.99842 -0.0561829 1 0.5 0 1
264 1 11.4661 26.089 0 90.7321 26.089 0 -500.177 -211.178 65.5694 -28.7656 0.91271 0.408607 1 0.5 0 1
265 1 14.6208 1.57313 0 14.6208 80.8391 0 478.469 221.622 90.3819 -296.581 0.432015 0.901866 1 0.5 0 1
266 1 52.0774 51.3992 0 52.0774 51.3992 0 211.687 316.892 45.5738 -99.9715 0.392711 -0.919662 1 0.5 0 1
267 1 14.9645 6.44905 0 14.9645 6.44905 0 -111.261 -627.546 137.324 277.098 -0.812086 -0.583537 1 0.5 0 1
268 1 72.1349 70.5967 0 72.1349 70.5967 0 -102.068 -326.757 145.59 25.8267 -0.331397 -0.943491 1 0.5 0 1
269 1 37.9874 14.2317 0 117.253 14.2317 0 677.256 -195.682 31.1939 -95.0102 0.311939 -0.950102 1 0.5 0 1
270 1 17.3707 9.69835 0 96.6367 9.69835 0 10.4175 -64.7931 94.5991 12.0755 0.973601 -0.228256 1 0.5 0 1
271 1 37.9045 44.1924 0 37.9045 44.1924 0 -255.578 -128.053 43.3047 -117.53 0.277946 -0.960597 1 0.5 0 1
272 1 59.8029 27.4947 0 59.8029 27.4947 0 546.103 -431.785 -44.0061 56.9936 0.48177 0.876298 1 0.5 0 1
273 1 56.2588 42.8352 0 56.2588 42.8352 0 -534.397 -116.633 17.51 60.1592 0.727722 -0.685872 1 0.5 0 1
274 1 33.7578 69.715 0 33.7578 -9.551 0 212.349 -807.335 46.5582 -32.766 -0.175161 -0.98454 1 0.5 0 1
275 1 46.428 72.8305 0 46.428 -6.43552 0 84.4389 -496.874 59.8968 6.19439 0.998716 0.0506545 1 0.5 0 1
276 1 59.7973 40.6587 0 59.7973 40.6587 0 652.458 29.6079 53.9792 -0.857863 0.999527 -0.0307583 1 0.5 0 1
277 1 56.6639 41.8914 0 -22.6021 41.8914 0 -471.689 -106.238 60.4693 36.2754 -0.7648 -0.644267 1 0.5 0 1
278 1 10.1195 67.5287 0 10.1195 67.5287 0 50.0828 -204.511 -11.8675 -117.383 -0.0513289 0.998682 1 0.5 0 1
279 1 2.83803 28.3463 0 82.104 28.3463 0 151.107 465.008 -19.1017 -8.50686 0.99996 -0.00893528 1 0.5 0 1
280 1 65.8206 70.4025 0 65.8206 -8.86354 0 204.546 -274.713 40.9877 19.971 -0.405935 -0.913902 1 0.5 0 1
281 1 57.9351 51.5054 0 57.9351 51.5054 0 366.567 -729.801 83.9901 -6.78424 0.533837 0.845587 1 0.5 0 1
282 1 36.0554 2.84997 0 36.0554 2.84997 0 -187.201 42.9886 62.8895 -80.7672 0.573131 -0.819464 1 0.5 0 1
283 1 5.02792 11.0801 0 5.02792 90.3461 0 -149.228 347.678 -73.2055 43.5849 -0.608198 0.793786 1 0.5 0 1
284 1 70.8925 4.50282 0 -8.37354 83.7688 0 -598.459 97.2322 45.6715 -25.0221 -0.895 0.446065 1 0.5 0 1
285 1 71.8781 32.0784 0 71.8781 32.0784 0 -363.398 205.447 48.0889 -31.909 0.345756 -0.938324 1 0.5 0 1