ITEM: TIMESTEP
280000
ITEM: NUMBER OF ATOMS
4000
ITEM: BOX BOUNDS pp pp pp
0.0000000000000000e+00 7.9266000000000005e+01
0.0000000000000000e+00 7.9266000000000005e+01
-5.0000000000000000e-01 5.0000000000000000e-01
ITEM: ATOMS id type x y z xu yu zu vx vy fx fy mux muy mu radius omegaz mass
1 1 0.612092 63.8638 0 79.8781 63.8638 0 -282.905 917.403 -89.3482 -60.6338 -0.641554 -0.767077 1 0.5 0 1
2 1 49.6193 1.22437 0 49.6193 1.22437 0 -451.998 453.066 53.697 84.3601 0.53697 0.843601 1 0.5 0 1
3 1 15.4868 34.8147 0 15.4868 -44.4513 0 166.886 -705.806 37.4682 -3.88669 -0.397172 0.917744 1 0.5 0 1
4 1 40.0335 59.2678 0 40.0335 59.2678 0 395.754 -391.637 15.9745 -98.7158 0.159745 -0.987158 1 0.5 0 1
5 1 3.08203 30.4622 0 3.08203 30.4622 0 -373.448 258.168 176.502 168.486 -0.991899 0.127031 1 0.5 0 1
6 1 70.0271 28.342 0 -9.23886 28.342 0 80.6205 -335.982 30.3364 -124.424 -0.494778 -0.86902 1 0.5 0 1
7 1 67.2745 48.596 0 67.2745 48.596 0 -479.374 105.933 281.776 84.1127 0.103449 0.994635 1 0.5 0 1
8 1 16.0234 37.8348 0 16.0234 -41.4312 0 -331.628 838.369 -103.785 -81.446 -0.63813 -0.769929 1 0.5 0 1
9 1 69.3048 25.446 0 69.3048 25.446 0 628.817 61.0291 -182.867 -186.59 0.26681 -0.963749 1 0.5 0 1
10 1 17.5223 50.9318 0 17.5223 50.9318 0 -647.115 295.569 8.94591 -39.9455 -0.98015 0.198259 1 0.5 0 1
11 1 36.7127 70.876 0 -42.5533 -8.38999 0 -239.672 -1107.87 -47.3968 20.556 -0.970121 0.242622 1 0.5 0 1
12 1 0.999734 21.7609 0 80.2657 101.027 0 -602.685 621.247 -59.7671 -124.771 0.107255 0.994232 1 0.5 0 1
13 1 74.7401 69.4562 0 74.7401 -9.80983 0 289.31 109.601 36.2526 -34.2609 0.354565 -0.935031 1 0.5 0 1
14 1 44.6041 27.0739 0 -113.928 27.0739 0 216.635 -425.458 -21.9104 127.609 -0.429491 0.903071 1 0.5 0 1
15 1 10.7446 33.2351 0 10.7446 33.2351 0 -350.079 -112.559 3.01385 23.6487 -0.848308 0.529503 1 0.5 0 1
16 1 17.4677 46.1837 0 -61.7983 -33.0823 0 -130.673 -103.671 73.0773 -114.298 -0.999391 -0.0349002 1 0.5 0 1
17 1 40.9051 39.6451 0 120.171 118.911 0 -493.343 551.721 -65.3578 43.7953 0.337047 0.941488 1 0.5 0 1
18 1 15.6107 54.9123 0 15.6107 54.9123 0 -677.159 -67.49 74.7164 -110.219 0.995154 0.0983261 1 0.5 0 1
19 1 4.34976 39.9459 0 4.34976 39.9459 0 -232.179 -195.823 27.3277 -49.4808 0.913921 -0.405892 1 0.5 0 1
20 1 13.7171 55.062 0 13.7171 55.062 0 -830.067 -362.1 61.4106 127.435 0.214623 -0.976697 1 0.5 0 1
21 1 5.18786 27.4476 0 5.18786 27.4476 0 484.092 314.038 -153.479 -5.59981 -0.999095 -0.0425425 1 0.5 0 1
22 1 2.35211 20.1447 0 81.6181 20.1447 0 322.955 104.245 1.34131 64.0191 -0.451153 -0.892447 1 0.5 0 1
23 1 14.1463 29.4742 0 93.4123 29.4742 0 -495.498 195.522 79.6227 -10.413 0.944117 0.329611 1 0.5 0 1
24 1 65.9525 56.18 0 65.9525 -23.086 0 419.183 -252.488 40.8259 -126.43 0.879806 -0.475333 1 0.5 0 1
25 1 46.8627 31.1172 0 -32.4033 -48.1488 0 -162.55 -60.587 -32.2259 54.8408 0.988831 0.14904 1 0.5 0 1
26 1 50.1543 57.7179 0 50.1543 -100.814 0 -166.622 168.885 37.6835 -22.7356 0.188301 -0.982111 1 0.5 0 1
27 1 74.1235 15.3535 0 -5.14246 94.6195 0 -423.604 473.884 71.5765 229.697 -0.407225 0.913328 1 0.5 0 1
28 1 31.4039 10.6769 0 31.4039 89.9429 0 65.1364 -61.5527 75.8469 50.4389 0.892138 0.451762 1 0.5 0 1
29 1 74.2457 37.559 0 -5.02028 37.559 0 217.446 -641.92 244.533 -45.3622 -0.895507 0.445047 1 0.5 0 1
30 1 62.8187 14.3203 0 62.8187 93.5863 0 -117.604 646.788 88.694 -74.0547 0.998165 -0.0605511 1 0.5 0 1
31 1 74.8622 25.6862 0 -4.40381 25.6862 0 629.438 352.974 -66.6623 -2.54573 -0.977554 0.210687 1 0.5 0 1
32 1 4.92145 14.3501 0 4.92145 14.3501 0 583.029 337.515 -208.063 -74.6612 -0.850257 0.526367 1 0.5 0 1
33 1 64.3899 57.4251 0 64.3899 -21.8409 0 -294.652 -505.484 4.11803 -67.0767 0.611868 -0.79096 1 0.5 0 1
34 1 5.87373 43.2354 0 85.1397 43.2354 0 596.93 -1030.3 220.744 170.155 0.44594 0.895063 1 0.5 0 1
35 1 20.5273 56.6022 0 -58.7387 56.6022 0 304.261 -69.8047 -17.9844 57.6229 0.206621 -0.978421 1 0.5 0 1
36 1 59.8742 56.7351 0 59.8742 -22.5309 0 109.965 315.831 223.907 -106.913 0.993305 0.115521 1 0.5 0 1
37 1 70.0469 41.5433 0 70.0469 41.5433 0 174.445 -58.358 203.371 -81.5924 -0.551339 0.834281 1 0.5 0 1
38 1 65.6946 10.4784 0 144.961 89.7444 0 949.376 102.531 39.9619 -30.8613 0.733457 0.679736 1 0.5 0 1
39 1 10.7824 1.17781 0 90.0484 -78.0882 0 462.348 139.659 69.4742 71.9259 0.694742 0.719259 1 0.5 0 1
40 1 33.9817 78.7002 0 -45.2843 78.7002 0 -378.402 -310.016 99.8019 6.29065 0.998019 0.0629065 1 0.5 0 1
41 1 68.7244 51.8229 0 68.7244 51.8229 0 210.29 -111.355 151.097 -79.3843 -0.825226 0.564803 1 0.5 0 1
42 1 74.0659 58.6982 0 -5.20009 58.6982 0 -130.826 -251.471 -250.341 76.2464 -0.337625 -0.941281 1 0.5 0 1
43 1 3.3851 12.9543 0 -75.8809 92.2203 0 568.177 626.46 -66.8785 1.63885 -0.464404 0.885623 1 0.5 0 1
44 1 65.1316 19.5612 0 65.1316 98.8272 0 -656.38 17.0429 -48.0257 88.0197 -0.95644 0.291927 1 0.5 0 1
45 1 37.2588 41.306 0 37.2588 -37.96 0 -464.983 113.528 -57.1186 -82.0821 -0.571186 -0.820821 1 0.5 0 1
46 1 6.91373 40.055 0 6.91373 40.055 0 -330.449 -41.4759 125.48 58.1167 -0.61653 0.787332 1 0.5 0 1
47 1 57.6848 59.6512 0 57.6848 -19.6148 0 70.4156 844.089 -147.648 -21.8653 0.71017 -0.70403 1 0.5 0 1
48 1 11.5494 45.3603 0 11.5494 45.3603 0 -1.3985 -461.388 46.2662 41.2053 -0.786204 -0.617967 1 0.5 0 1
49 1 67.0657 7.51461 0 67.0657 86.7806 0 193.356 -274.8 -112.913 20.45 -0.905774 0.423762 1 0.5 0 1
50 1 35.5144 32.7022 0 35.5144 32.7022 0 -615.146 58.8901 -113.694 10.2169 -0.991712 0.128481 1 0.5 0 1
51 1 52.621 76.2453 0 -26.645 -3.02071 0 -274.135 414.343 -66.4984 -12.5172 -0.963463 -0.267841 1 0.5 0 1
52 1 4.23436 31.7964 0 83.5004 31.7964 0 333.159 -141.134 226.923 -21.4596 -0.289064 0.95731 1 0.5 0 1
53 1 10.7659 53.9809 0 10.7659 133.247 0 -156.547 241.613 83.4184 -22.5343 -0.947245 0.320511 1 0.5 0 1
54 1 54.0269 28.7919 0 54.0269 28.7919 0 -11.6445 4.0682 -26.4264 135.577 -0.927392 0.374092 1 0.5 0 1
55 1 26.6591 35.7306 0 105.925 114.997 0 -924.232 -107.413 -58.9944 47.1007 -0.865247 0.501346 1 0.5 0 1
56 1 19.8884 46.9565 0 19.8884 46.9565 0 196.697 -472.484 22.471 -24.4508 0.826481 0.562965 1 0.5 0 1
57 1 31.543 23.2865 0 31.543 102.553 0 513.479 277.337 -0.970329 40.6083 -0.920624 0.390451 1 0.5 0 1
58 1 68.5784 26.1241 0 -10.6876 26.1241 0 -73.8884 -874.936 15.4042 30.4768 -0.883861 0.46775 1 0.5 0 1
59 1 53.0059 33.0152 0 53.0059 33.0152 0 131.918 -449.566 180.976 326.783 -0.968953 0.247247 1 0.5 0 1
60 1 56.8323 39.9632 0 56.8323 39.9632 0 -608.531 790.017 161.656 -114.357 -0.366705 -0.930337 1 0.5 0 1
61 1 59.3885 43.5614 0 59.3885 43.5614 0 41.342 1338.76 -139.477 -102.496 0.0673999 0.997726 1 0.5 0 1
62 1 53.5956 20.5239 0 132.862 20.5239 0 630.54 -653.901 47.8034 38.7009 0.995886 0.0906172 1 0.5 0 1
63 1 13.3531 58.8381 0 -65.9129 -20.4279 0 -442.208 -229.182 -43.9851 121.276 0.946338 0.323179 1 0.5 0 1
64 1 48.1329 27.7171 0 127.399 106.983 0 -181.696 -585.048 -17.2926 -23.5128 0.931578 0.36354 1 0.5 0 1
65 1 68.8987 78.3755 0 148.165 78.3755 0 742.31 255.552 45.4147 -89.0927 0.454147 -0.890927 1 0.5 0 1
66 1 13.7309 43.4664 0 92.9969 122.732 0 78.8677 59.7575 -107.601 -72.4291 -0.887765 0.460297 1 0.5 0 1
67 1 54.7122 41.8877 0 54.7122 41.8877 0 1214.06 380.063 50.6279 -211.211 -0.807661 -0.589647 1 0.5 0 1
68 1 14.778 40.1958 0 14.778 40.1958 0 -59.4114 2.06813 -81.2832 -71.7611 -0.599429 0.800428 1 0.5 0 1
69 1 33.5813 43.3242 0 33.5813 43.3242 0 51.1451 448.632 54.0185 -41.5376 0.439246 -0.898367 1 0.5 0 1
70 1 49.3846 37.1143 0 49.3846 116.38 0 820.191 67.6209 -69.8101 139.412 0.999891 0.0147711 1 0.5 0 1
71 1 78.0843 13.1105 0 78.0843 13.1105 0 297.684 -277.834 -152.823 27.4521 0.51583 0.856691 1 0.5 0 1
72 1 3.11819 55.5735 0 3.11819 55.5735 0 17.2064 -551.505 -98.1288 46.2627 0.101031 -0.994883 1 0.5 0 1
73 1 4.96337 17.0809 0 4.96337 17.0809 0 -115.839 114.375 -111.621 11.6293 -0.989746 -0.14284 1 0.5 0 1
74 1 56.3909 19.1933 0 56.3909 98.4593 0 37.1958 -331.053 55.451 42.4695 0.0413336 0.999145 1 0.5 0 1
75 1 75.6991 36.3212 0 -3.56694 36.3212 0 91.0921 155.274 115.255 48.2444 -0.213 0.977052 1 0.5 0 1
76 1 49.502 24.2004 0 -29.764 24.2004 0 419.899 -204.496 -32.4127 42.8067 0.622632 0.782514 1 0.5 0 1
77 1 78.4298 32.7827 0 -0.836227 32.7827 0 687.035 376.256 -101.43 -50.6374 0.970189 0.242349 1 0.5 0 1
78 1 47.1941 77.724 0 47.1941 77.724 0 194.506 -752.257 80.4159 59.4415 0.804159 0.594415 1 0.5 0 1
79 1 67.2301 78.2249 0 -12.0359 78.2249 0 -567.144 -221.459 -95.4158 29.9302 -0.954158 0.299302 1 0.5 0 1
80 1 1.12104 25.3141 0 1.12104 -53.9519 0 695.065 855.134 86.9463 -162.005 0.685089 0.728459 1 0.5 0 1
81 1 48.8578 34.0773 0 128.124 34.0773 0 -104.63 -372.532 24.1908 95.1289 0.23732 -0.971431 1 0.5 0 1
82 1 1.0243 36.9703 0 1.0243 36.9703 0 240.763 120.485 -74.6461 -57.2138 -0.0362545 0.999343 1 0.5 0 1
83 1 41.092 40.7381 0 120.358 120.004 0 493.636 506.819 -50.2092 45.833 0.971359 -0.237615 1 0.5 0 1
84 1 76.5387 43.6334 0 -2.72726 43.6334 0 159.804 152.052 243.377 -84.8172 -0.71825 -0.695786 1 0.5 0 1
85 1 60.2101 78.4522 0 60.2101 -0.813767 0 80.1547 -50.8431 18.665 98.2427 0.18665 0.982427 1 0.5 0 1
86 1 10.9702 38.829 0 10.9702 38.829 0 -647.632 -2.43486 101.011 -62.3102 -0.398296 0.917257 1 0.5 0 1
87 1 11.3836 40.7685 0 11.3836 40.7685 0 154.98 -90.5492 13.2594 192.551 -0.973409 0.229072 1 0.5 0 1
88 1 28.49 68.8226 0 28.49 -10.4434 0 -568.026 -236.492 -47.0001 -40.9453 -0.683949 -0.72953 1 0.5 0 1
89 1 41.0223 34.5977 0 41.0223 34.5977 0 -208.003 -346.055 -34.8756 -27.354 0.342322 -0.939583 1 0.5 0 1
90 1 4.35343 36.3364 0 4.35343 36.3364 0 202.317 144.505 125.581 -153.547 -0.917634 -0.397426 1 0.5 0 1
91 1 15.8026 57.8914 0 15.8026 -21.3746 0 -429.932 -1011.14 48.2176 46.3054 -0.204468 -0.978873 1 0.5 0 1
92 1 2.63173 52.6678 0 2.63173 52.6678 0 24.6265 -15.188 -74.1123 -123.521 -0.959759 0.280824 1 0.5 0 1
93 1 1.60959 43.369 0 1.60959 43.369 0 -658.613 -529.37 -236.336 172.497 0.527184 0.849751 1 0.5 0 1
94 1 70.2363 35.3985 0 70.2363 35.3985 0 274.495 372.747 -75.368 -65.3196 0.812651 -0.582751 1 0.5 0 1
95 1 67.1351 47.627 0 67.1351 47.627 0 467.659 -291.854 178.844 4.85519 0.138004 -0.990432 1 0.5 0 1
96 1 54.4929 40.8645 0 54.4929 40.8645 0 -150.177 -607.993 -18.4439 13.4507 0.248732 -0.968572 1 0.5 0 1
97 1 34.0158 71.3371 0 34.0158 -7.92891 0 -230.162 -573.032 7.02421 -99.753 0.0702421 -0.99753 1 0.5 0 1
98 1 40.7625 51.7526 0 40.7625 51.7526 0 -365.427 784.816 38.5846 0.155496 -0.934255 -0.356607 1 0.5 0 1
99 1 43.7137 39.694 0 43.7137 -39.572 0 145.45 708.437 -60.2126 -34.6366 0.996462 0.0840496 1 0.5 0 1
100 1 72.8498 42.4156 0 72.8498 42.4156 0 379.692 87.6442 56.588 -123.998 0.0386046 -0.999255 1 0.5 0 1
101 1 49.5526 46.2966 0 49.5526 -32.9694 0 -639.892 265.443 85.8012 52.7484 0.991974 0.126439 1 0.5 0 1
102 1 78.5448 40.7641 0 -0.721211 40.7641 0 -639.125 -296.587 -150.411 -67.1666 -0.898773 -0.438415 1 0.5 0 1
103 1 22.7559 61.6944 0 -56.5101 140.96 0 -917.481 589.53 -11.6186 4.52011 0.247895 0.968787 1 0.5 0 1
104 1 54.0319 42.5506 0 54.0319 121.817 0 -192.443 221.237 -217.421 49.6343 0.624117 0.781331 1 0.5 0 1
105 1 71.1511 11.1161 0 -8.1149 11.1161 0 -520.73 160.604 181.972 -137.398 0.999392 -0.034861 1 0.5 0 1
106 1 78.7949 72.0831 0 -0.471077 -7.1829 0 -358.422 408.102 176.1 -36.8287 0.6717 -0.740823 1 0.5 0 1
107 1 62.1793 36.3178 0 62.1793 36.3178 0 438.236 -89.1184 -51.3064 -76.6973 -0.084744 -0.996403 1 0.5 0 1
108 1 78.8455 34.6934 0 -0.420512 113.959 0 -554.196 -383.061 205.003 -6.52296 0.574417 -0.818563 1 0.5 0 1
109 1 31.1002 78.9748 0 -48.1658 78.9748 0 519.744 -83.4606 -74.0918 67.1596 -0.740918 0.671596 1 0.5 0 1
110 1 51.6973 29.7022 0 51.6973 29.7022 0 -142.816 598.084 -194.042 137.716 -0.529972 0.848015 1 0.5 0 1
111 1 73.1236 11.6013 0 73.1236 90.8673 0 174.022 -120.336 -103.587 -111.822 -0.43536 0.900257 1 0.5 0 1
112 1 10.4033 47.5989 0 10.4033 47.5989 0 196.31 558.746 -22.4092 -130.357 0.951595 -0.307355 1 0.5 0 1
113 1 24.2094 13.4165 0 -55.0566 92.6825 0 54.4051 390.197 40.2717 89.6627 -0.499905 0.86608 1 0.5 0 1
114 1 53.3263 53.2209 0 53.3263 53.2209 0 546.375 435.934 97.7064 -43.1376 0.858034 -0.513593 1 0.5 0 1
115 1 26.9328 62.2234 0 26.9328 -17.0426 0 -53.6601 255.193 -19.2555 1.42264 0.111554 -0.993758 1 0.5 0 1
116 1 18.6685 41.3815 0 18.6685 -37.8845 0 -216.859 -164.998 96.0755 -25.09 -0.127982 -0.991777 1 0.5 0 1
117 1 45.035 24.0541 0 45.035 24.0541 0 10.3435 734.562 -16.8907 -45.6038 0.901682 -0.432399 1 0.5 0 1
118 1 55.2189 40.2412 0 55.2189 40.2412 0 -766.814 -168.015 -7.23987 -32.9126 0.876664 -0.481103 1 0.5 0 1
119 1 45.3777 20.1404 0 124.644 20.1404 0 -360.234 -627.361 98.4822 17.3568 0.984822 0.173568 1 0.5 0 1
120 1 45.7448 50.5431 0 125.011 -28.7229 0 -267.517 343.673 38.3964 56.9344 -0.0015431 -0.999999 1 0.5 0 1
121 1 47.2543 59.7517 0 -111.278 -19.5143 0 -613.429 -259.534 -108.543 10.6311 -0.781598 -0.623782 1 0.5 0 1
122 1 44.5935 14.2886 0 44.5935 93.5546 0 -276.84 612.785 -107.08 101.383 -0.733474 -0.679717 1 0.5 0 1
123 1 75.0852 30.0382 0 -4.18082 30.0382 0 131.931 644.797 -22.1278 -73.8716 -0.990588 0.13688 1 0.5 0 1
124 1 8.52953 8.3887 0 8.52953 8.3887 0 -19.56 -605.433 -83.784 -54.5915 -0.83784 -0.545915 1 0.5 0 1
125 1 66.9554 26.4917 0 66.9554 26.4917 0 276.784 656.508 -97.9286 -194.851 0.527437 -0.849594 1 0.5 0 1
126 1 9.03925 33.5665 0 88.3053 112.832 0 -805.889 -98.2949 194.599 103.701 0.406543 0.913631 1 0.5 0 1
127 1 58.5458 29.5627 0 58.5458 108.829 0 -591.583 564.785 130.313 -116.036 0.674738 0.738057 1 0.5 0 1
128 1 3.59324 24.034 0 -75.6728 24.034 0 -383.334 170.012 -1.42203 187.019 -0.98316 0.182746 1 0.5 0 1
129 1 67.666 55.9023 0 67.666 -23.3637 0 -164.668 912.402 161.53 35.9099 0.899611 -0.436692 1 0.5 0 1
130 1 73.5433 54.8222 0 73.5433 -24.4438 0 279.654 192.392 189.478 42.4918 -0.206589 -0.978428 1 0.5 0 1
131 1 70.7116 3.81125 0 -8.55438 83.0772 0 789.352 -228.814 93.6215 16.861 0.854377 -0.519654 1 0.5 0 1
132 1 60.5854 31.2118 0 -18.6806 110.478 0 507.758 -245.468 -98.5832 -152.847 0.982432 0.186622 1 0.5 0 1
133 1 20.4668 53.9702 0 20.4668 133.236 0 227.571 -416.032 35.2907 8.03049 -0.861312 -0.508076 1 0.5 0 1
134 1 12.2401 36.5171 0 12.2401 36.5171 0 239.471 1078.99 -47.1753 -77.8366 -0.999938 0.0111355 1 0.5 0 1
135 1 13.8668 50.615 0 13.8668 129.881 0 -460.512 1382.46 150.738 -246.218 -0.195942 0.980615 1 0.5 0 1
136 1 62.1813 74.3 0 62.1813 74.3 0 239.12 70.3947 98.1936 -18.9211 0.981936 -0.189211 1 0.5 0 1
137 1 52.1342 24.3617 0 131.4 103.628 0 -51.8999 113.244 -113.329 46.4931 -0.685179 -0.728374 1 0.5 0 1
138 1 47.6988 51.1551 0 -31.5672 -28.1109 0 -404.045 -178.34 -16.8963 18.4652 0.69631 -0.717741 1 0.5 0 1
139 1 43.4421 42.315 0 43.4421 -36.951 0 -482.314 -304.769 244.151 -30.0271 0.386807 -0.922161 1 0.5 0 1
140 1 9.76514 8.51996 0 9.76514 8.51996 0 897.174 -513.638 -33.3444 48.7682 -0.446417 0.894825 1 0.5 0 1
141 1 8.4503 55.9213 0 8.4503 55.9213 0 53.9469 -116.857 -82.3896 -12.5078 0.963734 0.266863 1 0.5 0 1
142 1 57.6319 77.9734 0 -21.6341 77.9734 0 -448.401 458.378 -93.0331 -36.672 -0.930331 -0.36672 1 0.5 0 1
143 1 10.9376 34.2197 0 10.9376 113.486 0 -222.263 -164.665 63.9536 190.712 0.515248 0.857041 1 0.5 0 1
144 1 21.058 45.2576 0 21.058 -34.0084 0 -422.664 -23.3273 -11.6771 89.1463 -0.36298 0.931797 1 0.5 0 1
145 1 78.1393 4.47933 0 78.1393 83.7453 0 -163.598 -394.782 -22.5173 -108.89 0.0321918 -0.999482 1 0.5 0 1
146 1 59.7523 61.3412 0 59.7523 -17.9248 0 -3.74483 -268.305 11.301 63.5392 0.999514 -0.0311871 1 0.5 0 1
147 1 1.05508 66.9567 0 80.3211 -12.3093 0 193.935 485.066 362.595 -189.836 -0.290194 -0.956968 1 0.5 0 1
148 1 49.2251 57.1977 0 128.491 57.1977 0 806.135 434.522 34.9304 -47.0039 0.78161 0.623767 1 0.5 0 1
149 1 72.2018 29.88 0 72.2018 109.146 0 501.753 -587.031 141.086 180.601 -0.999927 -0.0120607 1 0.5 0 1
150 1 67.2916 34.6501 0 -11.9744 34.6501 0 409.92 -150.065 -83.287 86.4959 -0.113822 0.993501 1 0.5 0 1
151 1 2.20102 55.2415 0 81.467 -24.0245 0 623.454 -303.788 23.1669 -240.839 0.679095 0.734051 1 0.5 0 1
152 1 56.1702 64.9221 0 56.1702 64.9221 0 28.3922 -122.357 45.7669 -49.2645 0.37863 -0.925548 1 0.5 0 1
153 1 75.764 58.4849 0 75.764 58.4849 0 -449.285 -190.767 121.269 32.2761 0.54406 -0.839046 1 0.5 0 1
154 1 2.4277 47.2378 0 2.4277 47.2378 0 445.169 91.4662 -2.22375 20.2013 -0.63942 0.768858 1 0.5 0 1
155 1 65.4291 64.4183 0 -93.1029 -14.8477 0 486.331 -59.5116 -105.388 -35.7997 0.725999 -0.687696 1 0.5 0 1
156 1 73.9064 47.1484 0 73.9064 47.1484 0 1538.14 -892.23 -255.454 66.8772 -0.323942 0.946077 1 0.5 0 1
157 1 6.91904 27.2497 0 6.91904 27.2497 0 -373.459 -417.535 101.807 -10.9594 0.803403 0.595436 1 0.5 0 1
158 1 67.4991 38.0919 0 -11.7669 38.0919 0 405.925 392.814 -237.525 6.31383 -0.221241 -0.975219 1 0.5 0 1
159 1 30.3701 65.1993 0 30.3701 65.1993 0 148.323 -238.486 145.9 -160.211 -0.996843 -0.0793937 1 0.5 0 1
160 1 77.1555 5.56265 0 -2.11049 5.56265 0 -575.637 -83.2602 24.3344 8.2512 0.130156 -0.991494 1 0.5 0 1
161 1 39.7403 51.99 0 39.7403 -27.276 0 68.8801 -269.152 -19.8369 -70.3419 0.192216 -0.981353 1 0.5 0 1
162 1 5.65857 50.2291 0 5.65857 50.2291 0 191.472 431.93 42.1586 227.429 -0.773953 -0.633243 1 0.5 0 1
163 1 63.7933 48.0008 0 63.7933 48.0008 0 -425.531 421.921 -191.753 167.763 0.242461 0.970161 1 0.5 0 1
164 1 51.3752 73.2689 0 51.3752 -5.99711 0 163.524 -593.961 12.2828 -96.3085 -0.0122697 -0.999925 1 0.5 0 1
165 1 7.57123 4.75965 0 7.57123 4.75965 0 -136.331 202.887 -31.4296 94.9325 -0.314296 0.949325 1 0.5 0 1
166 1 10.1559 43.0462 0 10.1559 43.0462 0 -13.2299 -547.672 124.408 190.743 0.763245 0.646109 1 0.5 0 1
167 1 66.2079 27.1362 0 66.2079 27.1362 0 121.489 471.755 23.2676 87.3531 0.8631 -0.505033 1 0.5 0 1
168 1 41.932 20.6629 0 -37.334 99.9289 0 -462.681 -451.684 -27.2811 62.8281 -0.841202 0.54072 1 0.5 0 1
169 1 52.5395 70.9754 0 -26.7265 150.241 0 -1217.09 -76.6012 -33.9621 -23.3109 -0.930097 -0.367314 1 0.5 0 1
170 1 15.4168 49.3083 0 94.6828 128.574 0 173.039 457.191 31.1897 35.7421 -0.696914 0.717155 1 0.5 0 1
171 1 52.0917 18.9821 0 131.358 18.9821 0 186.344 645.634 66.0012 -75.1255 0.660012 -0.751255 1 0.5 0 1
172 1 6.70057 56.1079 0 6.70057 -23.1581 0 -168.954 66.3033 218.816 -148.025 -0.166726 -0.986003 1 0.5 0 1
173 1 19.1836 50.2071 0 19.1836 -29.0589 0 12.9096 623.961 -71.8016 20.9374 -0.46757 -0.883956 1 0.5 0 1
174 1 8.34323 50.3749 0 8.34323 50.3749 0 268.736 -508.456 -54.992 90.5732 -0.658277 0.752775 1 0.5 0 1
175 1 54.966 73.9897 0 -24.3 -5.27634 0 62.1261 -13.2045 -35.3007 -68.7589 -0.392191 -0.919884 1 0.5 0 1
176 1 9.84259 49.1531 0 9.84259 49.1531 0 -1085.54 210.91 97.9211 -48.3888 -0.651803 0.758388 1 0.5 0 1
177 1 6.57826 62.6573 0 6.57826 62.6573 0 -359.911 42.5409 27.2324 -48.2371 -0.67138 -0.741113 1 0.5 0 1
178 1 58.2176 27.5674 0 -21.0484 106.833 0 -699.151 -557.246 268.569 206.372 -0.660216 0.751076 1 0.5 0 1
179 1 3.57013 53.0037 0 3.57013 -26.2623 0 -815.561 -243.737 233.518 41.7355 0.0457468 -0.998953 1 0.5 0 1
180 1 74.0388 40.1573 0 74.0388 40.1573 0 -240.702 167.294 84.4866 -24.6017 -0.364614 0.931159 1 0.5 0 1
181 1 61.5725 15.5296 0 61.5725 15.5296 0 290.481 219.814 -29.5028 -40.2017 -0.314962 0.949104 1 0.5 0 1
182 1 37.934 71.7155 0 -41.332 71.7155 0 -21.2231 -98.7453 -104.153 26.0563 -0.9955 0.0947606 1 0.5 0 1
183 1 58.8077 55.3977 0 58.8077 -23.8683 0 -52.7283 312.09 72.5174 -202.38 -0.529754 0.848151 1 0.5 0 1
184 1 63.9573 41.4112 0 63.9573 41.4112 0 -131.385 -377.342 -45.3834 208.513 -0.722005 -0.691888 1 0.5 0 1
185 1 8.69954 4.29821 0 8.69954 4.29821 0 -504.581 -482.66 -46.1944 -88.6909 -0.461944 -0.886909 1 0.5 0 1
186 1 70.924 10.0381 0 -8.34201 89.3041 0 227.935 351.443 -71.5447 82.6223 -0.775177 0.631744 1 0.5 0 1
187 1 56.5859 33.4303 0 -22.6801 112.696 0 -146.143 -85.4337 -56.6611 -339.747 0.999503 0.0315154 1 0.5 0 1
188 1 44.5548 6.77333 0 123.821 86.0393 0 -473.181 -439.372 86.6677 49.8869 0.866677 0.498869 1 0.5 0 1
189 1 21.5348 53.7556 0 21.5348 53.7556 0 -570.956 -122.98 -31.6804 64.3672 -0.505562 0.86279 1 0.5 0 1
190 1 19.9048 53.1219 0 -59.3612 53.1219 0 634.429 158.799 9.55971 17.6097 -0.999485 0.0320749 1 0.5 0 1
191 1 66.0934 16.1661 0 145.359 16.1661 0 809.936 -1.48794 -36.7852 125.185 -0.184946 -0.982749 1 0.5 0 1
192 1 59.5897 36.3347 0 59.5897 36.3347 0 334.698 556.627 -94.9579 -207.426 0.260189 -0.965558 1 0.5 0 1
193 1 59.0508 66.6687 0 -20.2152 66.6687 0 200.83 326.165 79.0524 61.2431 0.790524 0.612431 1 0.5 0 1
194 1 14.5818 14.933 0 14.5818 14.933 0 -706.849 187.269 34.267 -93.9456 0.34267 -0.939456 1 0.5 0 1
195 1 54.967 29.1485 0 54.967 29.1485 0 -355.99 137.977 -87.1414 138.28 -0.870079 -0.492913 1 0.5 0 1
196 1 59.3724 39.9208 0 59.3724 39.9208 0 -588.255 247.143 -75.1653 -7.2815 -0.984296 0.176528 1 0.5 0 1
197 1 70.7876 60.0377 0 -8.47843 60.0377 0 22.0243 112.918 -45.3176 -44.7386 0.950986 0.309235 1 0.5 0 1
198 1 73.9947 43.6509 0 73.9947 43.6509 0 2.80804 463.151 -156.225 77.2005 -0.3752 0.926944 1 0.5 0 1
199 1 64.0198 65.8823 0 -15.2462 -13.3837 0 804.151 -14.8913 -74.2196 104.898 -0.477083 -0.878858 1 0.5 0 1
200 1 4.95825 12.4443 0 84.2242 91.7103 0 438.902 -92.2376 -61.7223 55.8051 0.159533 0.987193 1 0.5 0 1
201 1 31.7717 40.9661 0 31.7717 40.9661 0 630.033 620.881 91.8968 39.4333 0.918968 0.394333 1 0.5 0 1
202 1 56.4748 57.3149 0 -22.7912 -21.9511 0 22.9146 -773.39 -18.127 47.6488 0.888885 -0.458131 1 0.5 0 1
203 1 40.5736 76.0938 0 -38.6924 76.0938 0 1080.72 131.895 -2.41156 82.5283 0.19284 0.98123 1 0.5 0 1
204 1 64.1687 62.0455 0 64.1687 -17.2205 0 205.135 164.691 -92.7864 -73.9228 -0.488933 -0.872321 1 0.5 0 1
205 1 10.746 63.1981 0 10.746 63.1981 0 357.141 -218.536 34.0245 0.32886 -0.345678 0.938353 1 0.5 0 1
206 1 1.51454 56.8192 0 1.51454 -22.4468 0 -180.11 -43.9066 68.2712 -197.604 -0.704091 0.71011 1 0.5 0 1
207 1 53.2682 61.007 0 53.2682 61.007 0 217.609 200.102 93.3969 61.6447 0.992116 0.125326 1 0.5 0 1
208 1 9.41944 30.8895 0 9.41944 30.8895 0 559.385 231.436 -231.845 105.471 -0.921737 -0.387817 1 0.5 0 1
209 1 54.4184 26.2397 0 54.4184 105.506 0 -238.634 374.705 -71.8184 51.8269 -0.0166546 0.999861 1 0.5 0 1
210 1 65.7191 60.7841 0 -13.5469 60.7841 0 489.923 -77.1653 201.964 -67.4583 -0.91429 0.405061 1 0.5 0 1
211 1 61.4467 41.4718 0 61.4467 41.4718 0 -181.509 -553.209 -210.93 8.99131 0.267861 -0.963458 1 0.5 0 1
212 1 43.1996 19.6074 0 201.732 19.6074 0 541.619 -33.751 90.1067 43.3681 0.901067 0.433681 1 0.5 0 1
213 1 68.7537 64.0138 0 68.7537 64.0138 0 796.582 -224.797 -95.1546 -41.3015 0.832315 0.554302 1 0.5 0 1
214 1 50.8502 15.6777 0 50.8502 94.9437 0 -112.203 60.6871 -99.9111 4.21615 -0.999111 0.0421615 1 0.5 0 1
215 1 54.8211 58.6014 0 54.8211 -20.6646 0 -385.724 2.09715 -97.9422 -144.412 0.163839 -0.986487 1 0.5 0 1
216 1 15.1871 44.679 0 15.1871 123.945 0 -62.0708 705.845 -104.748 -69.8172 -0.359528 0.933134 1 0.5 0 1
217 1 29.2187 49.2567 0 108.485 49.2567 0 149.887 41.4859 18.3061 39.1964 0.0394708 0.999221 1 0.5 0 1
218 1 46.2039 47.8879 0 46.2039 47.8879 0 -405.507 -213.642 31.6964 -72.5574 -0.751777 -0.659417 1 0.5 0 1
219 1 53.2984 43.167 0 53.2984 43.167 0 831.93 309.546 82.4202 -83.4175 -0.821869 -0.569677 1 0.5 0 1
220 1 39.6582 2.11939 0 39.6582 -77.1466 0 37.561 240.84 35.7926 -42.973 0.541266 -0.840851 1 0.5 0 1
221 1 3.27908 0.789866 0 3.27908 159.322 0 -515.698 -63.2128 -67.9661 73.3527 -0.679661 0.733527 1 0.5 0 1
222 1 28.3177 76.2146 0 28.3177 -3.05144 0 555.789 449.991 16.2418 98.6722 0.162418 0.986722 1 0.5 0 1
223 1 72.1034 35.9857 0 -7.16262 35.9857 0 -165.268 -156.328 242.481 -146.477 -0.993098 0.117284 1 0.5 0 1
224 1 75.0448 60.0714 0 -4.22124 60.0714 0 -962.671 -291.962 147.297 61.6424 -0.218967 -0.975732 1 0.5 0 1
225 1 25.6656 38.2179 0 104.932 -41.0481 0 -599.305 -691.798 -20.7893 -5.17622 -0.483031 -0.875604 1 0.5 0 1
226 1 6.74174 68.1632 0 6.74174 -11.1028 0 -337.635 -131.142 140.848 -140.283 -0.922378 0.386289 1 0.5 0 1
227 1 1.47903 35.3255 0 80.745 35.3255 0 -297.29 -151.463 265.647 24.6379 -0.666752 -0.74528 1 0.5 0 1
228 1 8.92666 11.6806 0 -70.3393 11.6806 0 -287.577 60.6712 -29.5837 -95.2175 -0.347366 -0.937729 1 0.5 0 1
229 1 52.3923 39.1773 0 52.3923 39.1773 0 -64.2118 582.27 -14.6709 -37.26 -0.31733 -0.948315 1 0.5 0 1
230 1 52.9374 37.599 0 52.9374 116.865 0 510.313 -160.501 -130.939 -225.917 -0.561024 0.827799 1 0.5 0 1
231 1 8.08184 20.5807 0 8.08184 99.8467 0 -346.312 413.347 -55.3563 -60.4698 -0.842733 0.538333 1 0.5 0 1
232 1 49.9175 26.613 0 49.9175 -52.653 0 -169.596 19.411 -90.0854 -39.2248 0.322329 0.946628 1 0.5 0 1
233 1 6.83624 43.617 0 6.83624 43.617 0 1302.7 281.681 58.9195 -263.44 0.115306 0.99333 1 0.5 0 1
234 1 17.5773 54.7242 0 17.5773 -24.5418 0 -225.04 -885.089 -6.1438 -132.763 0.754 0.656874 1 0.5 0 1
235 1 32.6432 31.3907 0 32.6432 110.657 0 -480.479 983.933 8.81665 99.6106 0.0881665 0.996106 1 0.5 0 1
236 1 41.7742 33.873 0 121.04 33.873 0 -25.5901 -104.98 -73.3626 58.1573 0.562578 -0.826744 1 0.5 0 1
237 1 65.7285 76.6553 0 65.7285 -2.61073 0 -86.9855 -209.531 9.36415 -118.062 0.66455 -0.747244 1 0.5 0 1
238 1 72.239 20.0189 0 72.239 99.2849 0 340.524 -462.162 -191.848 100.199 -0.532822 0.846227 1 0.5 0 1
239 1 3.64012 40.5713 0 82.9061 40.5713 0 -144.4 -210.138 -271.435 -101.857 0.89029 -0.455394 1 0.5 0 1
240 1 72.1652 15.0091 0 72.1652 15.0091 0 197.317 -266.391 -97.2866 -165.346 0.861574 -0.507632 1 0.5 0 1
241 1 49.1833 36.1287 0 49.1833 36.1287 0 897.742 621.964 -303.408 -62.0283 -0.90493 0.42556 1 0.5 0 1
242 1 1.20767 61.2703 0 80.4737 -17.9957 0 1061.1 -359.461 -156.819 70.736 0.842355 -0.538923 1 0.5 0 1
243 1 24.9012 72.8855 0 -54.3648 72.8855 0 94.7939 -0.546623 -84.5697 -51.9449 -0.999993 0.00383365 1 0.5 0 1
244 1 61.7962 24.0732 0 61.7962 103.339 0 162.371 -250.41 14.5063 -2.10036 0.629246 -0.777206 1 0.5 0 1
245 1 56.246 49.7787 0 56.246 49.7787 0 -220.568 505.023 181.521 -75.8379 -0.593207 0.80505 1 0.5 0 1
246 1 49.9885 40.0823 0 49.9885 40.0823 0 432.737 -13.7392 -3.86252 65.1347 0.608445 -0.793596 1 0.5 0 1
247 1 67.2147 53.0399 0 67.2147 -26.2261 0 240.463 -248.022 -49.4945 -239.925 -0.239153 -0.970982 1 0.5 0 1
248 1 7.39678 14.0049 0 -71.8692 93.2709 0 -500.922 -293.447 44.3578 31.4289 -0.195132 -0.980777 1 0.5 0 1
249 1 1.49736 78.8503 0 80.7634 -0.415744 0 80.2766 -7.225 2.29484 -96.3836 0.0287323 -0.999587 1 0.5 0 1
250 1 69.068 76.2323 0 148.334 76.2323 0 -117.819 -341.949 46.8664 20.7019 0.999846 -0.0175233 1 0.5 0 1
251 1 9.91673 21.8292 0 9.91673 180.361 0 -27.6707 -546.731 -139.698 -119.159 0.562581 0.826742 1 0.5 0 1
252 1 60.3642 19.7514 0 60.3642 99.0174 0 554.222 -265.31 92.3941 -160.647 0.799877 0.600164 1 0.5 0 1
253 1 21.8249 47.6959 0 21.8249 47.6959 0 630.479 -202.877 3.02863 -12.6335 -0.927746 -0.373212 1 0.5 0 1
254 1 48.7376 33.0761 0 48.7376 112.342 0 -3.29308 -85.9721 16.1429 -88.1825 0.282407 0.959295 1 0.5 0 1
255 1 1.78091 32.7564 0 81.0469 112.022 0 -15.9616 -368.397 189.144 89.8106 -0.976098 -0.217332 1 0.5 0 1
256 1 69.1522 41.2214 0 -10.1138 41.2214 0 418.263 -778.28 -498.63 -26.98 0.361679 -0.932303 1 0.5 0 1
257 1 7.94877 36.7807 0 7.94877 116.047 0 -187.373 -25.6227 -96.4366 79.7352 0.70789 -0.706323 1 0.5 0 1
258 1 8.5819 25.0811 0 8.5819 -54.1849 0 -229.452 -460.489 36.5365 75.5012 0.0211264 0.999777 1 0.5 0 1
259 1 57.0176 66.5191 0 57.0176 66.5191 0 -11.2508 -91.2996 -67.3412 -73.9268 -0.673412 -0.739268 1 0.5 0 1
260 1 66.3065 64.8149 0 145.572 -14.4511 0 356.353 447.19 141.203 -63.938 0.999721 0.0236023 1 0.5 0 1
261 1 41.1338 67.3534 0 -38.1322 -11.9126 0 329.298 -437.376 99.9635 2.70193 0.999635 0.0270193 1 0.5 0 1
262 1 56.5846 58.3249 0 135.851 -20.9411 0 271.647 429.641 -108.763 -19.1814 0.984372 0.176102 1 0.5 0 1
263 1 36.9592 27.1912 0 -42.3068 -52.0748 0 558.415 -306.995 -60.8455 -79.3588 -0.608455 -0.793588 1 0.5 0 1
264 1 20.1056 4.68036 0 178.638 4.68036 0 1205.71 -458.745 -1.95871 -160.551 0.989724 -0.142992 1 0.5 0 1
265 1 53.8633 27.8202 0 53.8633 107.086 0 -449.121 341.711 33.6019 -24.2018 0.19969 0.979859 1 0.5 0 1
266 1 55.6726 51.3754 0 55.6726 51.3754 0 33.9969 -65.0492 29.8273 51.0977 0.99952 0.030973 1 0.5 0 1
267 1 71.9037 62.4741 0 -7.36226 -16.7919 0 98.9102 -382.429 29.9151 117.35 -0.77617 -0.630523 1 0.5 0 1
268 1 66.3709 59.1388 0 66.3709 59.1388 0 -354.424 51.7779 -96.2422 -48.0746 0.149906 -0.9887 1 0.5 0 1
269 1 14.6432 49.9532 0 93.9092 49.9532 0 479.908 389.965 39.5814 217.477 0.338287 0.941043 1 0.5 0 1
270 1 31.0654 58.9669 0 110.331 -20.2991 0 925.399 101.498 -59.5453 -141.95 -0.74288 0.669425 1 0.5 0 1
271 1 63.463 16.2683 0 63.463 16.2683 0 -48.3223 269.887 -16.5866 -15.1405 0.797358 -0.603507 1 0.5 0 1
272 1 52.0137 37.1989 0 52.0137 37.1989 0 858.912 -280.071 -148.897 150.017 0.445712 -0.895177 1 0.5 0 1
273 1 59.7087 49.117 0 59.7087 49.117 0 280.863 629.141 56.4396 153.921 0.988071 -0.154001 1 0.5 0 1
274 1 22.0023 21.1101 0 22.0023 21.1101 0 -464.878 -424.18 20.8873 -15.2385 0.984949 0.172843 1 0.5 0 1
275 1 6.29743 59.6823 0 85.5634 -19.5837 0 102.314 -353.241 -20.6628 186.528 -0.676016 0.736887 1 0.5 0 1
276 1 58.6911 44.2282 0 58.6911 44.2282 0 211.272 -215.577 -119.064 167.197 -0.0476729 0.998863 1 0.5 0 1
277 1 16.9915 17.6833 0 -62.2745 17.6833 0 -330.563 423.873 86.0286 50.9812 0.860286 0.509812 1 0.5 0 1
278 1 10.3461 31.2233 0 -68.9199 110.489 0 782.907 490.596 -32.0198 -33.5331 -0.802071 -0.597229 1 0.5 0 1
279 1 35.5532 33.7732 0 114.819 -45.4928 0 -346.712 79.5263 60.183 -14.7132 -0.154468 -0.987998 1 0.5 0 1
280 1 63.3842 6.99391 0 -15.8818 -72.2721 0 180.56 431.302 -54.9739 30.2525 -0.999606 0.0280662 1 0.5 0 1
281 1 68.4719 55.3064 0 68.4719 55.3064 0 1119.88 -669.378 -196.917 11.4011 -0.941151 -0.337987 1 0.5 0 1
282 1 47.8155 46.6164 0 47.8155 -32.6496 0 -374.355 182.354 114.702 -72.8609 0.418965 -0.908002 1 0.5 0 1
283 1 69.5175 29.9739 0 -9.74852 109.24 0 -137.18 -152.277 46.491 111.535 -0.433044 0.901373 1 0.5 0 1
284 1 7.76748 26.6344 0 7.76748 105.9 0 739.825 -433.902 -277.482 16.5705 0.959996 0.280013 1 0.5 0 1
285 1 66.1031 33.4154 0 66.1031 33.4154 0 -562.818 190.017 149.906 -67.134 0.747575 0.664178 1 0.5 0 1