ITEM: TIMESTEP
220000
ITEM: NUMBER OF ATOMS
4000
ITEM: BOX BOUNDS pp pp pp
0.0000000000000000e+00 7.9266000000000005e+01
0.0000000000000000e+00 7.9266000000000005e+01
-5.0000000000000000e-01 5.0000000000000000e-01
ITEM: ATOMS id type x y z xu yu zu vx vy fx fy mux muy mu radius omegaz mass
1 1 2.20911 62.7129 0 81.4751 62.7129 0 502.078 -541.713 -171.041 35.0617 -0.955957 -0.293508 1 0.5 0 1
2 1 26.8408 68.6503 0 26.8408 -10.6157 0 -683.943 1311.29 128.577 40.6804 0.885861 0.463952 1 0.5 0 1
3 1 25.6834 43.4579 0 25.6834 -35.8081 0 -218.548 359.691 1.44024 -72.1415 -0.935836 0.352436 1 0.5 0 1
4 1 43.0827 78.2958 0 43.0827 78.2958 0 -248.316 -28.2555 -17.9434 -98.377 -0.179434 -0.98377 1 0.5 0 1
5 1 5.27375 29.678 0 5.27375 29.678 0 -932.191 94.2645 -72.371 97.3834 -0.877164 -0.480191 1 0.5 0 1
6 1 72.4968 27.1704 0 -6.76923 27.1704 0 -311.599 85.4206 -72.3057 31.9288 -0.804083 0.594517 1 0.5 0 1
7 1 68.2748 47.1086 0 68.2748 47.1086 0 -526.017 -317.556 339.846 105.721 0.590937 0.806718 1 0.5 0 1
8 1 22.3429 49.0341 0 22.3429 -30.2319 0 -105.764 314.273 -49.1497 71.5556 -0.0082906 -0.999966 1 0.5 0 1
9 1 70.4072 23.347 0 70.4072 23.347 0 259.015 571.577 -1.19256 -132.266 -0.434316 -0.900761 1 0.5 0 1
10 1 17.5224 46.4553 0 17.5224 46.4553 0 314.517 -76.7363 -189.446 -195.053 -0.920862 -0.389888 1 0.5 0 1
11 1 35.7361 78.9149 0 -43.5299 -0.351122 0 -237.52 -516.551 -92.6476 52.7935 -0.767755 -0.640743 1 0.5 0 1
12 1 2.41263 20.1324 0 81.6786 99.3984 0 403.039 124.08 98.0861 -16.2296 -0.857897 0.513821 1 0.5 0 1
13 1 51.539 10.3358 0 51.539 10.3358 0 -309.583 -1273.77 56.0286 -82.8299 0.560286 -0.828299 1 0.5 0 1
14 1 72.3422 8.0873 0 -86.1898 8.0873 0 -176.803 -518.76 -97.9364 20.2106 -0.979364 0.202106 1 0.5 0 1
15 1 10.84 30.824 0 10.84 30.824 0 30.5522 -459.471 50.4797 8.11731 -0.675365 0.737484 1 0.5 0 1
16 1 26.7801 51.7693 0 -52.4859 -27.4967 0 391.82 -539.944 -12.3966 -77.7497 -0.994792 -0.101923 1 0.5 0 1
17 1 18.6892 19.8193 0 97.9552 99.0853 0 -165.056 -442.717 8.82883 -20.6814 0.622197 0.782861 1 0.5 0 1
18 1 16.0078 49.4928 0 16.0078 49.4928 0 308.134 -3.64447 -66.6386 -50.1728 0.405708 0.914003 1 0.5 0 1
19 1 5.99711 39.0802 0 5.99711 39.0802 0 189.457 320.209 49.7727 146.256 0.383502 0.92354 1 0.5 0 1
20 1 15.9594 52.4753 0 15.9594 52.4753 0 568.368 189.868 -299.152 46.3123 0.285348 -0.958424 1 0.5 0 1
21 1 8.60566 25.9321 0 8.60566 25.9321 0 -798.516 -707.983 25.7284 -3.89487 -0.973042 0.230626 1 0.5 0 1
22 1 75.5258 20.5046 0 75.5258 20.5046 0 275.142 25.5506 -117.985 -81.6638 0.799791 -0.600278 1 0.5 0 1
23 1 25.0515 2.12454 0 104.317 2.12454 0 261.272 -107.658 -21.8409 -14.3496 0.298048 0.954551 1 0.5 0 1
24 1 66.0865 55.3829 0 66.0865 -23.8831 0 -134.851 215.903 -102.629 16.4662 0.618986 -0.785402 1 0.5 0 1
25 1 31.8389 45.565 0 -47.4271 -33.701 0 -571.932 420.648 111.138 21.6243 -0.402446 -0.915444 1 0.5 0 1
26 1 49.1204 19.107 0 49.1204 -60.159 0 10.1449 251.128 8.93783 -99.5998 0.0893783 -0.995998 1 0.5 0 1
27 1 79.095 11.9405 0 -0.171024 91.2065 0 -513.225 -158.307 71.4194 77.7986 -0.475734 0.879589 1 0.5 0 1
28 1 30.0889 63.1541 0 30.0889 63.1541 0 158.843 -477.732 -119.763 66.1309 -0.999863 -0.016577 1 0.5 0 1
29 1 75.9202 36.5661 0 -3.34577 36.5661 0 -672.71 605.621 -4.71772 -13.7097 -0.414503 0.910048 1 0.5 0 1
30 1 59.435 18.9318 0 59.435 98.1978 0 684.728 961.994 -29.6898 -31.8121 0.954886 -0.296973 1 0.5 0 1
31 1 78.1996 24.1704 0 -1.06643 24.1704 0 357.235 962.848 1.95778 -57.3767 -0.982937 -0.183941 1 0.5 0 1
32 1 17.4334 32.4821 0 17.4334 32.4821 0 -481.782 -640.392 -103.106 6.95467 -0.965778 0.259371 1 0.5 0 1
33 1 64.4771 56.6263 0 64.4771 -22.6397 0 50.8908 141.708 -104.626 81.1277 0.710497 0.703701 1 0.5 0 1
34 1 7.29622 42.3591 0 86.5622 42.3591 0 -424.761 -141.405 6.79886 10.8458 -0.955491 -0.295019 1 0.5 0 1
35 1 25.9211 61.8696 0 -53.3449 61.8696 0 312.206 -431.984 -40.123 61.8005 -0.820151 0.572147 1 0.5 0 1
36 1 60.7126 55.0861 0 60.7126 -24.1799 0 -121.49 3.23776 -17.5033 33.0601 0.659683 -0.751544 1 0.5 0 1
37 1 71.3167 40.1933 0 71.3167 40.1933 0 -103.121 234.358 110.025 -88.8269 0.0278497 0.999612 1 0.5 0 1
38 1 25.4089 0.175047 0 104.675 79.441 0 -288.888 -465.877 46.8838 150.285 0.952839 0.303475 1 0.5 0 1
39 1 51.2496 8.89083 0 51.2496 -70.3752 0 557.742 489.321 20.8832 -97.7951 0.208832 -0.977951 1 0.5 0 1
40 1 14.8186 51.108 0 -64.4474 51.108 0 151.512 179.664 -54.5569 70.8809 0.480897 0.876777 1 0.5 0 1
41 1 69.6619 50.3219 0 69.6619 50.3219 0 -624.953 236.351 61.3983 89.5834 -0.999935 -0.0114378 1 0.5 0 1
42 1 74.2213 57.4793 0 -5.0447 57.4793 0 -22.5549 162.69 -42.5874 151.573 -0.640546 -0.76792 1 0.5 0 1
43 1 29.1816 6.42635 0 -50.0844 85.6923 0 -189.943 738.995 -81.0999 -119.217 -0.950972 0.309277 1 0.5 0 1
44 1 64.8495 19.6966 0 64.8495 98.9626 0 -303.928 362.234 53.3745 -32.7083 0.487543 -0.873099 1 0.5 0 1
45 1 36.0722 75.8238 0 36.0722 -3.4422 0 -132.923 -102.753 56.8526 -7.90025 -0.891805 -0.452419 1 0.5 0 1
46 1 8.681 39.2417 0 8.681 39.2417 0 594.523 -360.09 -112.396 55.2815 0.178025 0.984026 1 0.5 0 1
47 1 53.6758 61.2052 0 53.6758 -18.0608 0 -170.436 -277.562 87.677 -48.091 0.87677 -0.48091 1 0.5 0 1
48 1 14.3645 43.5089 0 14.3645 43.5089 0 300.95 571.038 142.661 -105.756 -0.849563 -0.527487 1 0.5 0 1
49 1 12.5194 6.87889 0 91.7854 86.1449 0 -418.993 -123.159 -88.7111 46.1557 -0.887111 0.461557 1 0.5 0 1
50 1 49.033 26.9879 0 49.033 26.9879 0 169.234 -73.8781 -75.9471 -26.095 -0.42977 0.902938 1 0.5 0 1
51 1 76.5698 14.5642 0 -2.69619 14.5642 0 -45.3195 -137.109 -16.3826 36.6217 -0.858483 0.512842 1 0.5 0 1
52 1 6.9891 29.3834 0 86.2551 29.3834 0 408.192 407.446 19.0285 52.364 -0.76824 0.640162 1 0.5 0 1
53 1 12.5649 51.6413 0 12.5649 130.907 0 95.5546 -173.439 -91.9543 62.0246 -0.622024 -0.782999 1 0.5 0 1
54 1 55.32 26.7869 0 55.32 26.7869 0 -199.097 -417.916 109.453 215.887 0.0742531 -0.997239 1 0.5 0 1
55 1 42.0893 20.1055 0 121.355 99.3715 0 232.406 -590.056 116.714 -15.8493 0.975609 0.219516 1 0.5 0 1
56 1 20.1843 41.929 0 20.1843 41.929 0 403.05 -197.798 -136.605 17.6323 -0.668153 0.744024 1 0.5 0 1
57 1 37.4226 74.5906 0 37.4226 74.5906 0 -660.819 104.975 52.0183 6.37747 -0.830238 0.557409 1 0.5 0 1
58 1 70.2082 24.3503 0 -9.05779 24.3503 0 -6.84208 -840.431 124.73 199.892 -0.861577 0.507627 1 0.5 0 1
59 1 54.0199 31.2326 0 54.0199 31.2326 0 767.158 206.528 157.581 -32.5423 -0.638415 0.769692 1 0.5 0 1
60 1 57.9186 38.1353 0 57.9186 38.1353 0 116.58 162.248 -59.1407 53.5498 -0.133075 -0.991106 1 0.5 0 1
61 1 60.4306 41.7516 0 60.4306 41.7516 0 -482.783 -304.622 -4.075 -81.1748 0.300963 0.953636 1 0.5 0 1
62 1 21.8415 8.5313 0 101.108 8.5313 0 -54.0835 96.4516 83.0288 55.7334 0.830288 0.557334 1 0.5 0 1
63 1 17.7349 7.30257 0 -61.5311 7.30257 0 -82.4304 -479.853 -56.8213 36.1936 -0.353374 -0.935482 1 0.5 0 1
64 1 27.2669 15.9592 0 106.533 95.2252 0 943.216 353.588 105.708 81.052 0.933108 0.359597 1 0.5 0 1
65 1 41.5522 21.0364 0 120.818 100.302 0 -403.624 -522.004 39.8055 23.1165 0.997761 -0.0668781 1 0.5 0 1
66 1 18.2247 30.1362 0 97.4907 109.402 0 39.7642 73.857 -28.911 95.7296 -0.28911 0.957296 1 0.5 0 1
67 1 55.7804 40.1123 0 55.7804 40.1123 0 26.9089 -38.1364 167.024 145.327 0.689892 -0.723912 1 0.5 0 1
68 1 26.6634 48.1005 0 26.6634 48.1005 0 -307.818 45.156 -26.6897 72.424 -0.349852 -0.936805 1 0.5 0 1
69 1 18.7348 55.2947 0 18.7348 55.2947 0 25.9835 693.431 -12.4812 -5.30608 0.323051 -0.946382 1 0.5 0 1
70 1 50.419 35.4456 0 50.419 114.712 0 1169.55 -219.956 -146.6 130.391 0.89588 0.444296 1 0.5 0 1
71 1 58.3429 79.0259 0 58.3429 -0.240082 0 593.52 -470.588 97.9165 -20.3067 0.979165 -0.203067 1 0.5 0 1
72 1 3.26989 55.1739 0 3.26989 55.1739 0 347.685 277.684 -55.5051 -75.5536 -0.887558 0.460696 1 0.5 0 1
73 1 14.2931 33.7025 0 14.2931 33.7025 0 299.636 -293.104 16.659 -95.8047 -0.979503 0.201431 1 0.5 0 1
74 1 68.0103 11.5349 0 68.0103 90.8009 0 385.169 -328.41 -24.0396 -42.9788 -0.956847 0.290591 1 0.5 0 1
75 1 77.4595 35.353 0 -1.80647 35.353 0 -294.603 -104.439 36.3526 328.031 -0.223202 0.974772 1 0.5 0 1
76 1 50.1126 28.4933 0 -29.1534 28.4933 0 -147.745 407.615 30.8713 25.8467 -0.695795 0.71824 1 0.5 0 1
77 1 1.10779 32.013 0 1.10779 32.013 0 -297.645 146.042 146.767 -145.119 0.975492 0.220036 1 0.5 0 1
78 1 25.6818 70.3741 0 25.6818 70.3741 0 -409.959 243.247 23.9479 10.8327 0.989795 -0.142498 1 0.5 0 1
79 1 7.96773 65.1048 0 7.96773 65.1048 0 -854.401 872.342 -76.1803 35.8587 -0.576223 -0.817293 1 0.5 0 1
80 1 4.40949 23.9471 0 4.40949 -55.3189 0 -102.676 -72.4514 25.1578 -10.478 -0.782892 0.622158 1 0.5 0 1
81 1 48.3592 33.6577 0 127.625 33.6577 0 327.447 393.776 -137.304 -27.6426 0.0458011 -0.998951 1 0.5 0 1
82 1 2.84079 36.1209 0 2.84079 36.1209 0 146.868 -70.8676 -100.595 -55.7501 0.897111 0.441804 1 0.5 0 1
83 1 13.692 21.5554 0 92.958 100.821 0 368.42 -37.7517 52.7523 125.346 0.788118 0.615524 1 0.5 0 1
84 1 77.8922 42.5819 0 -1.37384 42.5819 0 -68.9758 -657.265 229.754 74.4267 -0.41813 -0.908387 1 0.5 0 1
85 1 21.6175 53.0823 0 21.6175 -26.1837 0 53.5002 84.5181 -115.556 -139.778 0.999796 0.0201812 1 0.5 0 1
86 1 13.7364 38.0235 0 13.7364 38.0235 0 220.424 -37.1647 44.0173 68.3636 -0.811713 0.584056 1 0.5 0 1
87 1 13.1684 39.7935 0 13.1684 39.7935 0 -255.743 -405.94 31.2867 -23.3561 -0.998757 0.0498382 1 0.5 0 1
88 1 28.9833 7.42873 0 28.9833 7.42873 0 -311.881 35.9449 -92.2058 128.723 -0.237795 -0.971315 1 0.5 0 1
89 1 25.8916 57.83 0 25.8916 57.83 0 228.558 -80.24 35.593 -46.5879 0.451845 -0.892096 1 0.5 0 1
90 1 6.33058 35.6287 0 6.33058 35.6287 0 -199.639 20.7741 -15.0685 -63.9085 -0.78602 0.618201 1 0.5 0 1
91 1 16.8745 57.4511 0 16.8745 -21.8149 0 -560.95 799.701 14.7503 -108.79 0.0267173 -0.999643 1 0.5 0 1
92 1 3.06583 52.1562 0 3.06583 52.1562 0 -79.6445 -72.2257 49.9687 -7.43252 -0.675129 0.737699 1 0.5 0 1
93 1 2.97116 42.4481 0 2.97116 42.4481 0 55.0139 -225.907 -30.9628 319.801 0.671448 0.741052 1 0.5 0 1
94 1 71.9387 34.1929 0 71.9387 34.1929 0 -295.899 551.54 117.33 -82.7661 0.873655 -0.486546 1 0.5 0 1
95 1 68.1543 46.1557 0 68.1543 46.1557 0 149.461 806.864 -170.823 -110.594 0.226459 0.974021 1 0.5 0 1
96 1 55.563 39.1618 0 55.563 39.1618 0 -271.8 717.313 -29.3494 -164.526 0.890705 0.454581 1 0.5 0 1
97 1 45.3925 22.4942 0 45.3925 22.4942 0 -798.591 931.838 -55.0056 -83.5128 -0.550056 -0.835128 1 0.5 0 1
98 1 57.0691 0.303347 0 57.0691 79.5693 0 567.15 -1010.88 58.3963 -81.5329 0.629191 -0.777251 1 0.5 0 1
99 1 44.9424 45.0584 0 44.9424 -34.2076 0 516.306 -85.9686 89.5563 44.7083 0.904031 -0.427466 1 0.5 0 1
100 1 74.1176 41.2055 0 74.1176 41.2055 0 204.829 145.37 88.2704 95.315 -0.822188 -0.569216 1 0.5 0 1
101 1 50.6264 44.704 0 50.6264 -34.562 0 -18.9952 -1104.19 -122.014 169.208 0.995831 -0.0912203 1 0.5 0 1
102 1 0.785933 39.8187 0 0.785933 39.8187 0 108.337 -495.251 -81.0561 143.592 -0.392597 0.919711 1 0.5 0 1
103 1 43.3803 24.023 0 -35.8857 103.289 0 763.06 194.185 -63.3477 35.3603 -0.870084 0.492904 1 0.5 0 1
104 1 55.0497 40.7707 0 55.0497 120.037 0 152.811 130.844 122.759 190.218 0.622848 0.782343 1 0.5 0 1
105 1 56.336 9.9919 0 -22.93 9.9919 0 302.529 21.289 69.7348 -47.6881 0.990388 0.138315 1 0.5 0 1
106 1 0.661074 12.5155 0 0.661074 12.5155 0 -326.433 -514.828 -169.977 -13.0528 -0.74814 -0.66354 1 0.5 0 1
107 1 63.2397 34.5581 0 63.2397 34.5581 0 -44.2257 -313.757 -101.67 -80.8479 -0.998992 0.0448863 1 0.5 0 1
108 1 1.55906 33.8704 0 1.55906 113.136 0 -231.429 101.418 -172.876 -82.4471 0.999979 -0.00644189 1 0.5 0 1
109 1 38.0101 65.4665 0 -41.2559 65.4665 0 -452.155 455.883 68.9701 23.1645 -0.0773949 0.997001 1 0.5 0 1
110 1 48.9167 31.0235 0 48.9167 31.0235 0 -214.096 591.373 118.115 -149.461 0.427294 0.904113 1 0.5 0 1
111 1 57.4187 75.4876 0 57.4187 75.4876 0 325.973 -340.033 59.0942 80.6714 0.590942 0.806714 1 0.5 0 1
112 1 11.2105 45.9047 0 11.2105 45.9047 0 298.334 -400.374 37.9991 61.9294 -0.57699 -0.816751 1 0.5 0 1
113 1 29.855 59.0884 0 -49.411 59.0884 0 -845.87 82.0314 -13.1693 8.66291 -0.659983 0.751281 1 0.5 0 1
114 1 54.2182 51.9156 0 54.2182 51.9156 0 -230.537 432.728 52.6685 -16.6384 0.999692 0.0248038 1 0.5 0 1
115 1 69.0261 74.064 0 -10.2399 -5.20202 0 -422.106 300.297 87.9445 47.6 0.879445 0.476 1 0.5 0 1
116 1 24.2856 56.4615 0 24.2856 -22.8045 0 115.605 196.989 13.2575 67.5723 -0.961925 -0.273313 1 0.5 0 1
117 1 25.0057 44.2375 0 25.0057 44.2375 0 642.97 391.358 62.6908 -58.8281 -0.256807 -0.966463 1 0.5 0 1
118 1 56.2755 38.4916 0 56.2755 38.4916 0 -589.757 -67.2545 -14.4731 -124.8 0.717269 -0.696797 1 0.5 0 1
119 1 4.29746 70.4672 0 83.5635 -8.79883 0 450.569 -360.446 53.4609 3.55496 0.834946 0.550332 1 0.5 0 1
120 1 41.8925 78.5332 0 121.158 -0.732785 0 -314.986 380.791 1.57364 -96.708 -0.014066 -0.999901 1 0.5 0 1
121 1 4.98969 1.17372 0 -74.2763 1.17372 0 254.449 -281.015 -113.325 -38.7107 -0.959875 -0.280428 1 0.5 0 1
122 1 57.4151 19.5548 0 57.4151 98.8208 0 -24.9988 478.217 -84.3019 -38.1625 0.299587 0.954069 1 0.5 0 1
123 1 77.1748 29.0327 0 -2.09125 29.0327 0 -976.397 -1149.69 41.1634 134.974 -0.8463 0.532706 1 0.5 0 1
124 1 21.3128 43.6587 0 21.3128 43.6587 0 -430.784 559.961 53.2104 -72.693 -0.661145 -0.750258 1 0.5 0 1
125 1 68.3604 24.6887 0 68.3604 24.6887 0 228.962 1201.21 -126.864 -379.081 0.864594 -0.502472 1 0.5 0 1
126 1 9.15519 31.1336 0 88.4212 110.4 0 333.021 -285.633 -19.6824 77.6157 -0.103975 0.99458 1 0.5 0 1
127 1 59.8085 27.7497 0 59.8085 107.016 0 824.736 190.653 -29.3649 -6.08009 0.896821 0.442394 1 0.5 0 1
128 1 7.29718 22.7702 0 -71.9688 22.7702 0 -571.334 -330.948 -29.6046 -3.25131 -0.797023 -0.60395 1 0.5 0 1
129 1 67.8034 55.1208 0 67.8034 -24.1452 0 603.117 -335.551 55.7934 24.9902 0.0562339 -0.998418 1 0.5 0 1
130 1 73.7075 53.5655 0 73.7075 -25.7005 0 26.4711 485.124 271.729 132.988 0.250094 -0.968222 1 0.5 0 1
131 1 57.0204 13.8607 0 -22.2456 93.1267 0 355.72 -410.303 -116.704 208.163 0.926467 0.376376 1 0.5 0 1
132 1 62.442 29.4743 0 -16.824 108.74 0 -450.076 609.983 52.5257 -11.0165 0.594418 0.804156 1 0.5 0 1
133 1 45.898 25.9163 0 45.898 105.182 0 -164.693 -512.089 -13.9327 40.7142 -0.941608 0.33671 1 0.5 0 1
134 1 22.1956 41.7845 0 22.1956 41.7845 0 837.365 -757.41 -229.033 -13.0791 -0.595121 -0.803636 1 0.5 0 1
135 1 14.7753 46.8392 0 14.7753 126.105 0 -187.141 107.575 88.7799 63.1288 -0.663682 0.748015 1 0.5 0 1
136 1 21.8922 13.4521 0 21.8922 92.7181 0 -127.166 -233.564 57.5885 -74.8517 0.378903 -0.925436 1 0.5 0 1
137 1 51.0997 12.8965 0 130.366 92.1625 0 -394.337 892.99 -35.3083 91.4884 -0.0125086 0.999922 1 0.5 0 1
138 1 65.1495 74.942 0 -14.1165 -4.32399 0 -517.286 437.076 -27.5452 -24.6501 -0.632548 -0.774521 1 0.5 0 1
139 1 40.5542 47.5144 0 40.5542 -31.7516 0 37.6877 381.335 79.8101 -60.2524 0.798101 -0.602524 1 0.5 0 1
140 1 33.8789 0.635003 0 33.8789 0.635003 0 359.62 107.314 -26.2145 28.2367 -0.893378 -0.449306 1 0.5 0 1
141 1 8.33182 53.1995 0 8.33182 53.1995 0 48.6703 604.878 -64.5331 66.6599 0.953789 -0.300477 1 0.5 0 1
142 1 23.7237 75.3158 0 23.7237 75.3158 0 -331.842 613.195 -24.5119 -67.5435 -0.982992 -0.183647 1 0.5 0 1
143 1 11.1368 31.8059 0 11.1368 111.072 0 -224.164 -383.925 -106.271 -44.0642 -0.999013 -0.0444141 1 0.5 0 1
144 1 33.4936 46.2911 0 33.4936 -32.9749 0 -1116.57 36.6928 -107.607 16.3876 -0.997598 0.0692709 1 0.5 0 1
145 1 72.8015 16.0046 0 72.8015 95.2706 0 502.07 -410.331 -148.506 198.105 0.381677 -0.924296 1 0.5 0 1
146 1 54.737 66.2852 0 54.737 -12.9808 0 -744.583 -393.231 64.1535 -83.3838 0.532661 -0.846328 1 0.5 0 1
147 1 78.1925 68.2358 0 78.1925 -11.0302 0 -73.924 2.51293 -9.30082 -145.38 0.3602 -0.932875 1 0.5 0 1
148 1 26.923 31.4838 0 106.189 31.4838 0 -369.281 337.826 10.2312 117.324 0.151362 0.988478 1 0.5 0 1
149 1 74.5015 28.8554 0 74.5015 108.121 0 37.2521 531.695 -17.6525 -0.726766 -0.575726 -0.817643 1 0.5 0 1
150 1 69.1018 33.1701 0 -10.1642 33.1701 0 -760.498 -293.032 -17.8843 -105.656 0.467533 0.883976 1 0.5 0 1
151 1 2.40677 54.684 0 81.6728 -24.582 0 -720.979 101.355 -96.8315 -31.336 0.981554 0.191188 1 0.5 0 1
152 1 38.4434 28.9205 0 38.4434 108.186 0 333.11 -526.252 46.0643 -32.4512 0.582785 -0.812626 1 0.5 0 1
153 1 75.8471 57.253 0 75.8471 57.253 0 -541.142 232.881 307.225 77.1603 0.990004 -0.14104 1 0.5 0 1
154 1 3.48588 46.4281 0 3.48588 46.4281 0 -548.357 184.494 107.973 -122.181 -0.553639 -0.832757 1 0.5 0 1
155 1 65.5207 66.2827 0 -93.0113 -12.9833 0 -299.11 -360.928 -17.62 -98.4354 -0.1762 -0.984354 1 0.5 0 1
156 1 74.9797 45.9076 0 74.9797 45.9076 0 299.759 -830.99 24.4876 70.7824 -0.937551 -0.347848 1 0.5 0 1
157 1 4.52854 18.295 0 4.52854 18.295 0 885.503 -703.62 42.2073 106.704 -0.287378 0.957817 1 0.5 0 1
158 1 68.8952 36.618 0 -10.3708 36.618 0 -169.12 186.132 -185.883 -94.7029 -0.954667 -0.297677 1 0.5 0 1
159 1 48.1644 70.3403 0 48.1644 70.3403 0 765.683 458.674 -10.1654 -7.65479 -0.93172 -0.363179 1 0.5 0 1
160 1 24.8162 19.2398 0 24.8162 19.2398 0 -170.276 -125.808 -75.1094 66.0195 -0.751094 0.660195 1 0.5 0 1
161 1 23.0739 69.9062 0 23.0739 -9.35984 0 879.751 -12.9576 31.7618 -80.5459 0.125979 -0.992033 1 0.5 0 1
162 1 6.38345 49.2914 0 6.38345 49.2914 0 -144.378 195.175 -10.1811 -124.163 -0.251057 -0.967972 1 0.5 0 1
163 1 64.8142 46.017 0 64.8142 46.017 0 -1100.08 -740.613 -25.7836 -163.362 -0.540781 -0.841164 1 0.5 0 1
164 1 39.6171 25.8217 0 39.6171 25.8217 0 -1018.12 -54.392 97.9412 -20.187 0.979412 -0.20187 1 0.5 0 1
165 1 30.0921 48.3057 0 30.0921 -30.9603 0 576.886 1144.79 30.7611 -19.2873 -0.217681 0.97602 1 0.5 0 1
166 1 11.6843 42.27 0 11.6843 42.27 0 -410.794 461.334 145.747 -25.449 -0.951074 0.308964 1 0.5 0 1
167 1 67.4299 25.0764 0 67.4299 25.0764 0 -297.376 -90.8535 -85.4524 44.9471 0.433068 -0.901361 1 0.5 0 1
168 1 75.3789 9.17012 0 -3.88715 88.4361 0 -50.5943 235.595 -98.0168 -19.8168 -0.980168 -0.198168 1 0.5 0 1
169 1 4.87085 68.871 0 4.87085 148.137 0 -807.418 179.241 -37.0516 60.0853 -0.990932 0.134368 1 0.5 0 1
170 1 17.1222 41.8915 0 96.3882 121.158 0 -114.005 557.591 -6.75616 -80.6003 0.130626 0.991432 1 0.5 0 1
171 1 48.2679 27.6069 0 127.534 27.6069 0 -117.344 115.758 25.9526 62.8669 0.996906 0.0786027 1 0.5 0 1
172 1 6.67435 54.1927 0 6.67435 -25.0733 0 520.469 -524.31 -185.938 81.8974 -0.642087 -0.766632 1 0.5 0 1
173 1 20.6434 54.9204 0 20.6434 -24.3456 0 369.591 -379.947 -208.256 56.5073 -0.127267 -0.991868 1 0.5 0 1
174 1 8.94897 49.63 0 8.94897 49.63 0 568.179 -492.748 -201.379 79.316 -0.974709 0.22348 1 0.5 0 1
175 1 1.65783 12.4936 0 1.65783 12.4936 0 21.0871 751.589 171.517 15.2968 -0.875729 -0.482802 1 0.5 0 1
176 1 10.5102 47.5284 0 10.5102 47.5284 0 -282.438 241.624 -81.1343 -106.496 -0.128439 0.991717 1 0.5 0 1
177 1 10.4416 66.4147 0 10.4416 66.4147 0 793.668 167.771 -12.9048 -99.1638 -0.129048 -0.991638 1 0.5 0 1
178 1 59.6444 25.6844 0 -19.6216 104.95 0 143.992 75.1977 83.3564 -91.4961 0.0148164 0.99989 1 0.5 0 1
179 1 3.94679 52.6056 0 3.94679 -26.6604 0 647.517 -259.421 -111.451 262.164 -0.445721 -0.895172 1 0.5 0 1
180 1 75.4693 39.0793 0 75.4693 39.0793 0 -910.34 -170.788 184.919 -62.8737 -0.747446 0.664323 1 0.5 0 1
181 1 59.1034 19.9545 0 59.1034 19.9545 0 -393.715 -387.84 102.082 -84.4077 -0.99938 0.0352109 1 0.5 0 1
182 1 67.4123 77.0824 0 -11.8537 77.0824 0 161.58 288.567 71.3215 13.2063 -0.76422 -0.644955 1 0.5 0 1
183 1 59.7146 53.7156 0 59.7146 -25.5504 0 1188.27 119.854 -54.6135 92.9381 0.340178 0.940361 1 0.5 0 1
184 1 65.089 39.7214 0 65.089 39.7214 0 -388.593 -501.468 161.914 -1.47072 -0.841894 0.539643 1 0.5 0 1
185 1 11.9477 35.8198 0 11.9477 35.8198 0 -294.863 -1042.71 -50.3917 -48.2457 -0.260407 -0.965499 1 0.5 0 1
186 1 8.85771 1.46188 0 8.85771 80.7279 0 -38.9917 164.84 -67.907 -52.2422 -0.719136 0.69487 1 0.5 0 1
187 1 58.4421 31.9918 0 -20.8239 111.258 0 294.069 -732.146 92.3546 -20.2396 0.789369 0.613919 1 0.5 0 1
188 1 28.9623 77.4622 0 108.228 77.4622 0 530.966 -178.762 11.4358 99.2745 0.789504 0.613745 1 0.5 0 1
189 1 27.9818 35.3352 0 27.9818 35.3352 0 -634.522 -57.2655 -68.2585 73.0806 -0.682585 0.730806 1 0.5 0 1
190 1 26.8041 56.0708 0 -52.4619 56.0708 0 164.318 -232.509 -65.3359 -77.2773 -0.998952 0.0457772 1 0.5 0 1
191 1 64.0035 16.2383 0 143.27 16.2383 0 237.54 -363.396 60.7235 58.4855 0.900268 -0.435335 1 0.5 0 1
192 1 60.655 34.5583 0 60.655 34.5583 0 -139.258 -135.895 151.67 -50.9745 0.812291 -0.583253 1 0.5 0 1
193 1 31.3649 43.8028 0 -47.9011 43.8028 0 -405.563 117.859 76.9528 94.7942 0.374618 0.927179 1 0.5 0 1
194 1 20.8686 46.291 0 20.8686 46.291 0 -576.451 -65.6433 28.521 -4.10897 0.663843 -0.747872 1 0.5 0 1
195 1 56.2324 27.2081 0 56.2324 27.2081 0 -49.1968 -119.082 -83.8929 19.1846 0.0209675 0.99978 1 0.5 0 1
196 1 60.4607 38.1265 0 60.4607 38.1265 0 -231.764 287.995 280.991 -28.558 -0.794826 -0.606837 1 0.5 0 1
197 1 71.0478 59.244 0 -8.21817 59.244 0 -122.792 184.697 183.476 -15.875 0.530386 -0.847756 1 0.5 0 1
198 1 75.2626 42.4796 0 75.2626 42.4796 0 -22.3054 -297.185 -243.8 238.767 -0.294857 0.955541 1 0.5 0 1
199 1 69.8431 63.7853 0 -9.42292 -15.4807 0 189.203 40.0064 -95.6203 -170.212 0.238475 -0.971149 1 0.5 0 1
200 1 62.3547 75.4249 0 62.3547 75.4249 0 -94.9732 -288.54 84.6956 -26.6744 0.882986 -0.4694 1 0.5 0 1
201 1 15.0135 5.25008 0 15.0135 5.25008 0 287.97 -391.047 -9.63323 99.5349 -0.0963323 0.995349 1 0.5 0 1
202 1 57.0442 55.5202 0 -22.2218 -23.7458 0 326.445 -1199.5 -13.3663 53.7244 -0.852956 -0.521982 1 0.5 0 1
203 1 37.6296 63.5184 0 -41.6364 63.5184 0 89.3692 -123.638 -72.8807 16.4721 -0.983098 0.183081 1 0.5 0 1
204 1 65.9882 62.1677 0 65.9882 -17.0983 0 -660.834 -189.112 -12.8477 -63.4195 0.2864 -0.95811 1 0.5 0 1
205 1 10.6654 56.1271 0 10.6654 56.1271 0 663.916 -264.02 -33.7389 69.6604 -0.907449 0.420162 1 0.5 0 1
206 1 1.57824 56.1698 0 1.57824 -23.0962 0 41.0862 387.959 -2.98109 -42.0827 -0.956036 0.29325 1 0.5 0 1
207 1 33.0706 73.9196 0 33.0706 73.9196 0 303.868 -364.305 109.544 23.1785 0.995756 -0.092036 1 0.5 0 1
208 1 12.8068 31.2489 0 12.8068 31.2489 0 328.722 -325.523 20.4636 -8.4716 -0.999949 -0.0101286 1 0.5 0 1
209 1 54.1755 24.395 0 54.1755 103.661 0 10.6166 -719.052 151.373 41.076 0.541675 0.840588 1 0.5 0 1
210 1 65.8323 60.0494 0 -13.4337 60.0494 0 -164.428 268.703 -46.0265 -183.732 -0.170716 -0.98532 1 0.5 0 1
211 1 62.5319 39.725 0 62.5319 39.725 0 -765.351 -75.2675 186.115 -61.8157 0.799085 -0.601218 1 0.5 0 1
212 1 2.11942 71.4733 0 160.651 -7.79269 0 321.277 32.9141 98.987 17.5938 0.999073 0.0430455 1 0.5 0 1
213 1 69.5844 61.7087 0 69.5844 61.7087 0 221.321 642.17 164.134 -65.4425 -0.347881 0.937539 1 0.5 0 1
214 1 60.0949 23.4428 0 60.0949 102.709 0 769.583 184.801 6.56931 58.9766 -0.149553 -0.988754 1 0.5 0 1
215 1 53.7208 62.5571 0 53.7208 -16.7089 0 -221.071 265.061 64.1792 -76.6879 0.641792 -0.766879 1 0.5 0 1
216 1 19.2758 43.8021 0 19.2758 123.068 0 -593.052 78.0456 83.7057 -156.132 0.68151 0.731809 1 0.5 0 1
217 1 19.3048 11.419 0 98.5708 11.419 0 -663.916 63.9098 68.8238 72.5485 0.688238 0.725485 1 0.5 0 1
218 1 49.9757 46.3746 0 49.9757 46.3746 0 934.004 231.219 -170.72 1.59343 0.663627 -0.748063 1 0.5 0 1
219 1 54.2966 41.4038 0 54.2966 41.4038 0 -295.132 -150.264 222.067 3.55884 -0.465417 -0.885091 1 0.5 0 1
220 1 27.6837 45.6927 0 27.6837 -33.5733 0 34.1543 -559.46 42.5916 96.1924 0.0944446 -0.99553 1 0.5 0 1
221 1 35.7722 51.1231 0 35.7722 130.389 0 -312.652 317.77 -14.147 98.9942 -0.14147 0.989942 1 0.5 0 1
222 1 38.1072 50.0713 0 38.1072 -29.1947 0 -379.712 -16.0106 37.2554 92.801 0.372554 0.92801 1 0.5 0 1
223 1 73.8232 34.9053 0 -5.44284 34.9053 0 -235.314 176.591 218.818 78.1615 -0.554216 0.832373 1 0.5 0 1
224 1 74.7375 59.3744 0 -4.52852 59.3744 0 -482.858 -343.918 -40.0636 52.9677 0.949587 -0.313503 1 0.5 0 1
225 1 23.9157 64.7064 0 103.182 -14.5596 0 478.365 -375.232 -80.0475 -138.807 0.950993 -0.309213 1 0.5 0 1
226 1 22.8133 59.1215 0 22.8133 -20.1445 0 -235.163 -496.127 -73.7701 -89.8171 -0.630279 0.776369 1 0.5 0 1
227 1 3.48404 34.567 0 82.75 34.567 0 133.236 548.65 -179.227 -76.8469 -0.756574 0.653908 1 0.5 0 1
228 1 30.1709 39.1234 0 -49.0951 39.1234 0 189.868 -934.377 -76.6591 -64.2136 -0.766591 -0.642136 1 0.5 0 1
229 1 53.4209 37.4945 0 53.4209 37.4945 0 740.515 -646.238 87.0231 199.861 0.994367 0.105992 1 0.5 0 1
230 1 53.9405 35.8981 0 53.9405 115.164 0 -289.562 349.019 60.7297 5.066 -0.996491 0.0836958 1 0.5 0 1
231 1 45.0068 11.3787 0 45.0068 90.6447 0 -532.602 111.356 -99.3896 -11.0317 -0.993896 -0.110317 1 0.5 0 1
232 1 52.0573 29.3901 0 52.0573 -49.8759 0 -175.789 -266.477 -10.2269 81.669 0.987816 -0.155626 1 0.5 0 1
233 1 8.23307 42.756 0 8.23307 42.756 0 162.652 1006.01 -146.829 -154.026 -0.901993 -0.43175 1 0.5 0 1
234 1 17.8793 51.9828 0 17.8793 -27.2832 0 425.165 623.14 -31.9851 -33.3515 -0.705643 0.708568 1 0.5 0 1
235 1 22.6604 75.7917 0 22.6604 75.7917 0 968.553 22.9873 -44.765 50.3916 0.304578 0.952487 1 0.5 0 1
236 1 32.1385 63.7293 0 111.404 63.7293 0 104.907 75.637 12.1994 120.393 -0.133138 -0.991097 1 0.5 0 1
237 1 58.8858 20.9467 0 58.8858 20.9467 0 115.451 190.679 10.2598 -8.29523 0.366049 -0.930595 1 0.5 0 1
238 1 70.1715 16.1037 0 70.1715 95.3697 0 423.792 233.397 125.857 19.1811 0.307336 0.951601 1 0.5 0 1
239 1 5.20664 39.703 0 84.4726 39.703 0 -572.533 -98.6085 22.9491 -31.5305 0.488574 0.872522 1 0.5 0 1
240 1 63.8697 9.2306 0 63.8697 9.2306 0 -254.511 55.0451 -0.381538 -48.566 0.952456 0.304677 1 0.5 0 1
241 1 50.2219 34.4401 0 50.2219 34.4401 0 -5.61608 339.668 -128.224 39.2347 -0.402257 -0.915527 1 0.5 0 1
242 1 0.893154 60.5129 0 80.1592 -18.7531 0 43.7389 731.183 63.113 394.864 0.338276 -0.941047 1 0.5 0 1
243 1 38.0907 13.0305 0 -41.1753 92.2965 0 348.813 -127.317 -99.1204 -37.0745 -0.663572 -0.748113 1 0.5 0 1
244 1 52.7672 21.7745 0 52.7672 101.04 0 250.181 -234.599 34.1361 -53.2133 0.99279 0.119864 1 0.5 0 1
245 1 57.3635 47.938 0 57.3635 47.938 0 556.533 152.646 -64.6482 15.8421 0.766249 0.642544 1 0.5 0 1
246 1 50.9591 38.4343 0 50.9591 38.4343 0 78.8066 151.805 -51.7697 20.7317 0.455876 -0.890043 1 0.5 0 1
247 1 68.1224 51.5656 0 68.1224 -27.7004 0 8.0671 334.171 -102.348 43.3001 -0.940292 -0.340368 1 0.5 0 1
248 1 28.921 40.099 0 -50.345 119.365 0 -65.5474 368.186 -98.5474 -16.9825 -0.985474 -0.169825 1 0.5 0 1
249 1 1.7403 19.4346 0 81.0063 19.4346 0 851.94 -258.207 -90.9148 -88.6294 0.595653 -0.803242 1 0.5 0 1
250 1 33.8477 78.8213 0 113.114 78.8213 0 -45.1718 -479.342 167.705 -97.0473 0.991137 -0.132841 1 0.5 0 1
251 1 28.9435 3.60305 0 28.9435 162.135 0 247.448 71.7633 -110.698 -9.66429 -0.919127 -0.393962 1 0.5 0 1
252 1 43.594 77.0131 0 43.594 77.0131 0 -700.59 580.291 29.6259 87.594 0.335899 0.941898 1 0.5 0 1
253 1 24.3914 74.0724 0 24.3914 74.0724 0 -76.2301 -1003.8 72.9545 54.3551 0.781397 -0.624035 1 0.5 0 1
254 1 46.5864 33.8708 0 46.5864 113.137 0 516.287 -66.5382 36.5166 135.393 0.432029 0.90186 1 0.5 0 1
255 1 3.89687 32.0379 0 83.1629 111.304 0 -649.142 -108.822 103.791 133.938 -0.338557 0.940946 1 0.5 0 1
256 1 70.4045 39.8411 0 -8.86148 39.8411 0 -105.273 417.116 -256.107 109.544 0.977997 0.20862 1 0.5 0 1
257 1 9.11477 35.7092 0 9.11477 114.975 0 -319.24 -650.423 8.3204 -64.0304 -0.420041 -0.907505 1 0.5 0 1
258 1 11.9851 25.1853 0 11.9851 -54.0807 0 -334.541 582.467 -28.6479 -4.90525 -0.472621 -0.881266 1 0.5 0 1
259 1 3.71998 65.0803 0 82.986 65.0803 0 360.048 59.241 20.2259 151.513 -0.954747 0.297419 1 0.5 0 1
260 1 65.3967 76.719 0 144.663 -2.54703 0 -200.507 -460.281 19.5966 -97.5438 0.212753 -0.977106 1 0.5 0 1
261 1 32.0574 0.969488 0 -47.2086 0.969488 0 -404.821 498.09 154.767 -29.0146 -0.624519 -0.781009 1 0.5 0 1
262 1 57.1068 56.6133 0 136.373 -22.6527 0 1210.69 -254.642 53.1595 -15.0678 0.828399 -0.560138 1 0.5 0 1
263 1 32.0209 60.7841 0 -47.2451 -18.4819 0 151.147 -418.146 -159.292 30.9491 0.689317 -0.724459 1 0.5 0 1
264 1 59.9198 14.4385 0 139.186 14.4385 0 82.7131 -54.4941 -104.636 -102.426 0.997327 0.0730612 1 0.5 0 1
265 1 54.3877 26.4981 0 54.3877 105.764 0 215.428 393.766 45.4086 -110.768 0.923807 0.382859 1 0.5 0 1
266 1 56.6837 49.4856 0 56.6837 49.4856 0 267.806 276.696 83.5802 129.954 0.986887 0.161412 1 0.5 0 1
267 1 75.2943 63.285 0 -3.97175 -15.981 0 -111.609 305.386 58.4353 27.0562 -0.0173174 -0.99985 1 0.5 0 1
268 1 66.5092 58.3891 0 66.5092 58.3891 0 -1263.85 670.169 39.8833 -73.9296 0.998772 0.0495368 1 0.5 0 1
269 1 16.8735 42.8899 0 96.1395 42.8899 0 -311.949 456.679 54.6429 80.0483 -0.335838 0.94192 1 0.5 0 1
270 1 50.9711 47.739 0 130.237 -31.527 0 1238.14 667.503 -37.5004 -304.535 -0.651389 -0.758744 1 0.5 0 1
271 1 60.8758 20.4918 0 60.8758 20.4918 0 124.026 -477.61 25.7688 63.6399 0.994378 0.105885 1 0.5 0 1
272 1 53.0262 35.526 0 53.0262 35.526 0 -359.872 -178.08 -192.196 117.824 -0.978457 -0.206449 1 0.5 0 1
273 1 60.7611 47.392 0 60.7611 47.392 0 -251.774 847.181 34.0307 -206.003 0.464104 -0.885781 1 0.5 0 1
274 1 6.85672 68.5037 0 6.85672 -10.7623 0 389.554 -178.534 -23.1792 121.493 -0.429149 0.903234 1 0.5 0 1
275 1 6.19332 58.6741 0 85.4593 -20.5919 0 -829.096 -114.784 18.6269 -98.5121 -0.99987 -0.0161136 1 0.5 0 1
276 1 59.7379 42.4147 0 59.7379 42.4147 0 -550.065 531.723 -76.8482 28.4968 0.940816 -0.338918 1 0.5 0 1
277 1 14.481 14.8108 0 -64.785 14.8108 0 186.154 -124.958 -31.9651 -16.8321 -0.998537 0.0540728 1 0.5 0 1
278 1 13.574 30.0608 0 -65.692 109.327 0 -1076.93 197.169 -81.1552 39.6719 -0.744097 0.668071 1 0.5 0 1
279 1 53.4942 79.0168 0 132.76 -0.249208 0 900.861 -69.0975 -32.0091 -94.7387 -0.320091 -0.947387 1 0.5 0 1
280 1 19.1817 20.7322 0 19.1817 -58.5338 0 -420.58 -224.497 -4.48988 8.42641 -0.610442 -0.792061 1 0.5 0 1
281 1 68.5974 54.5122 0 68.5974 54.5122 0 -94.9561 -796.803 58.3052 71.1001 0.998571 0.0534342 1 0.5 0 1
282 1 48.8759 45.017 0 48.8759 -34.249 0 -658.779 -1236.24 118.082 28.6857 0.880313 -0.474392 1 0.5 0 1
283 1 71.8909 28.6766 0 -7.37515 107.943 0 -786.058 -141.287 -101.905 95.9809 0.373175 0.927761 1 0.5 0 1
284 1 3.71466 17.6137 0 3.71466 96.8797 0 345.356 -28.254 54.678 -32.332 0.327498 0.944852 1 0.5 0 1
285 1 67.9914 31.8523 0 67.9914 31.8523 0 402.733 652.916 30.3688 -369.439 0.170148 0.985419 1 0.5 0 1