ITEM: TIMESTEP
60000
ITEM: NUMBER OF ATOMS
4000
ITEM: BOX BOUNDS pp pp pp
0.0000000000000000e+00 7.9266000000000005e+01
0.0000000000000000e+00 7.9266000000000005e+01
-5.0000000000000000e-01 5.0000000000000000e-01
ITEM: ATOMS id type x y z xu yu zu vx vy fx fy mux muy mu radius omegaz mass
1 1 49.0163 58.9768 0 49.0163 58.9768 0 -549.401 237.876 -67.6707 -90.2042 0.542138 0.84029 1 0.5 0 1
2 1 35.2269 1.47219 0 35.2269 1.47219 0 479.633 -501.742 -107.307 -10.5861 -0.340251 -0.940335 1 0.5 0 1
3 1 37.8656 12.1605 0 37.8656 12.1605 0 -394.354 11.6805 8.54785 -149.907 0.479327 -0.877636 1 0.5 0 1
4 1 58.7451 17.9736 0 58.7451 97.2396 0 2.12261 505.727 -1.22741 73.7668 0.11915 0.992876 1 0.5 0 1
5 1 52.9433 35.8039 0 52.9433 35.8039 0 -709.128 110.142 6.96469 -125.096 -0.640016 -0.768362 1 0.5 0 1
6 1 41.9582 22.1625 0 41.9582 22.1625 0 -79.4251 -134.237 -35.512 -12.9904 -0.87345 0.486914 1 0.5 0 1
7 1 65.791 42.3943 0 65.791 42.3943 0 323.797 -130.774 -17.1689 103.405 0.99569 0.0927447 1 0.5 0 1
8 1 30.0011 8.75491 0 30.0011 8.75491 0 25.8187 -39.2715 -113.692 -22.6713 -0.818959 -0.573852 1 0.5 0 1
9 1 27.6624 27.4925 0 27.6624 27.4925 0 -257.365 -89.0265 -63.7114 -19.1092 0.268034 -0.963409 1 0.5 0 1
10 1 66.5455 66.8209 0 66.5455 66.8209 0 -846.29 56.9711 131.257 -67.0548 -0.316298 -0.94866 1 0.5 0 1
11 1 70.2836 54.0775 0 -8.98236 54.0775 0 646.913 1348.57 -166.142 -114.082 -0.995862 -0.09088 1 0.5 0 1
12 1 53.0169 63.3944 0 53.0169 63.3944 0 13.2773 -265.09 47.1248 25.762 0.764786 0.644284 1 0.5 0 1
13 1 32.4402 60.8412 0 32.4402 60.8412 0 -36.775 120.685 44.4823 -77.728 0.310838 -0.950463 1 0.5 0 1
14 1 66.8892 58.5588 0 -12.3768 58.5588 0 527.498 -574.119 -59.2189 -27.7296 -0.921112 -0.389299 1 0.5 0 1
15 1 49.4116 62.0371 0 49.4116 62.0371 0 285.999 -662.6 -109.154 36.0273 -0.999145 0.041355 1 0.5 0 1
16 1 61.3791 11.7294 0 -17.8869 11.7294 0 176.721 498.649 164.103 46.2729 -0.835203 0.549941 1 0.5 0 1
17 1 46.6217 41.0728 0 46.6217 41.0728 0 82.775 104.816 -2.94118 -1.27132 -0.345481 0.938426 1 0.5 0 1
18 1 39.8404 25.0796 0 39.8404 25.0796 0 381.324 -193.676 -29.2443 -95.6283 -0.292443 -0.956283 1 0.5 0 1
19 1 34.4302 59.0615 0 34.4302 59.0615 0 -250.147 425.317 53.7018 -21.7192 0.360743 -0.932665 1 0.5 0 1
20 1 18.7935 53.7877 0 18.7935 53.7877 0 -148.976 771.525 34.0502 56.7295 0.359514 0.93314 1 0.5 0 1
21 1 54.3508 61.4088 0 54.3508 -17.8572 0 107.872 570.996 -8.38997 63.5427 -0.776159 -0.630537 1 0.5 0 1
22 1 43.2428 34.3036 0 43.2428 34.3036 0 167.413 -238.591 100 -0.06994 1 -0.0006994 1 0.5 0 1
23 1 26.7326 12.9482 0 26.7326 12.9482 0 -413.949 51.4801 -12.3831 -99.2303 -0.123831 -0.992303 1 0.5 0 1
24 1 67.5277 70.7164 0 67.5277 -8.54963 0 202.887 -228.143 -101.466 -104.691 0.202148 -0.979355 1 0.5 0 1
25 1 1.49494 0.820292 0 1.49494 0.820292 0 -473.181 -563.857 -44.0414 -6.87553 -0.999577 0.0290951 1 0.5 0 1
26 1 24.1135 72.5321 0 24.1135 -6.73394 0 -740.727 -293.415 93.6243 109.236 0.0828285 -0.996564 1 0.5 0 1
27 1 49.7487 27.91 0 49.7487 27.91 0 120.966 92.2589 -72.6561 68.7102 -0.726561 0.687102 1 0.5 0 1
28 1 29.2571 43.4024 0 29.2571 43.4024 0 -366.116 650.586 -22.8488 97.3547 -0.228488 0.973547 1 0.5 0 1
29 1 0.522142 33.2917 0 0.522142 33.2917 0 -671.191 149.321 4.64974 -115.719 -0.207151 0.978309 1 0.5 0 1
30 1 38.6508 22.7461 0 38.6508 102.012 0 -107.713 548.191 -33.3777 -16.7718 0.0188633 0.999822 1 0.5 0 1
31 1 30.1957 50.2983 0 30.1957 50.2983 0 -249.087 58.6773 -12.0941 -99.266 -0.120941 -0.99266 1 0.5 0 1
32 1 34.4954 42.8319 0 34.4954 42.8319 0 -212.483 1026.86 -19.2004 83.0488 -0.162563 0.986698 1 0.5 0 1
33 1 36.474 61.0415 0 36.474 -18.2245 0 -503.957 17.6968 45.1817 -81.786 -0.46325 -0.886228 1 0.5 0 1
34 1 77.5104 33.7555 0 77.5104 33.7555 0 -176.098 -647.262 -17.3883 -98.6932 0.931612 0.363455 1 0.5 0 1
35 1 15.5923 77.7483 0 15.5923 77.7483 0 -784.671 1.36304 -65.189 3.31083 -0.958266 -0.285878 1 0.5 0 1
36 1 48.3281 18.3489 0 48.3281 18.3489 0 633.335 412.845 -22.2951 -7.57516 -0.0573548 -0.998354 1 0.5 0 1
37 1 70.7114 36.1852 0 70.7114 36.1852 0 117.957 -1106.3 -48.9168 94.2559 0.0328242 0.999461 1 0.5 0 1
38 1 21.4495 34.1576 0 100.715 34.1576 0 187.362 -588.064 83.5597 88.0375 0.711641 0.702543 1 0.5 0 1
39 1 16.4739 16.8297 0 16.4739 16.8297 0 -6.59594 12.4426 50.8257 33.2056 -0.373126 -0.927781 1 0.5 0 1
40 1 75.7339 68.1618 0 -3.53212 -11.1042 0 301.587 72.6771 -14.7224 3.16561 -0.406877 -0.913483 1 0.5 0 1
41 1 59.6657 61.8713 0 59.6657 61.8713 0 156.203 418.867 200.642 45.2781 -0.186295 -0.982494 1 0.5 0 1
42 1 9.71656 75.4095 0 9.71656 75.4095 0 523.036 -770.463 -80.0204 -59.9728 -0.800204 -0.599728 1 0.5 0 1
43 1 11.2803 65.3999 0 11.2803 65.3999 0 416.984 -476.967 -90.4025 -9.56847 -0.986255 -0.16523 1 0.5 0 1
44 1 74.1692 2.69423 0 74.1692 81.9602 0 233.87 636.788 -53.6959 84.3608 -0.536959 0.843608 1 0.5 0 1
45 1 15.0613 61.4611 0 15.0613 61.4611 0 141.222 826.138 -11.8802 -93.3965 -0.243534 -0.969892 1 0.5 0 1
46 1 18.3261 19.3406 0 18.3261 19.3406 0 196.77 214.784 -41.0178 -130.265 -0.970591 -0.240733 1 0.5 0 1
47 1 7.04101 6.2777 0 7.04101 6.2777 0 -287.892 -691.278 3.42059 -4.74362 -0.178326 -0.983971 1 0.5 0 1
48 1 49.8877 53.6609 0 49.8877 53.6609 0 290.301 -525.664 -41.056 80.855 -0.977397 -0.211413 1 0.5 0 1
49 1 69.8298 9.16515 0 69.8298 88.4311 0 -19.8445 -393.248 175.84 -90.7263 0.999888 -0.0149561 1 0.5 0 1
50 1 67.4351 30.322 0 67.4351 30.322 0 143.627 180.355 92.6586 -16.0579 0.99993 0.0118108 1 0.5 0 1
51 1 13.3057 11.2922 0 13.3057 11.2922 0 -113.508 357.059 7.69436 41.7621 -0.981081 -0.193596 1 0.5 0 1
52 1 0.706768 17.0697 0 79.9728 17.0697 0 -402.719 427.37 72.414 -68.9653 0.72414 -0.689653 1 0.5 0 1
53 1 47.8402 69.1382 0 47.8402 69.1382 0 -345.044 248.95 -65.2468 75.7816 -0.652468 0.757816 1 0.5 0 1
54 1 33.5709 33.3467 0 33.5709 33.3467 0 -764.173 -299.597 -18.618 70.4501 0.895857 0.444342 1 0.5 0 1
55 1 9.65246 4.63377 0 88.9185 83.8998 0 138.938 -542.42 22.5374 93.4391 0.989633 0.143618 1 0.5 0 1
56 1 35.7939 50.9964 0 35.7939 50.9964 0 93.1139 207.718 -50.192 -44.9289 -0.772302 -0.635256 1 0.5 0 1
57 1 20.4807 73.1524 0 20.4807 73.1524 0 428.748 591.681 3.7874 36.7295 -0.843795 0.536665 1 0.5 0 1
58 1 15.6899 17.6142 0 15.6899 17.6142 0 130.845 -271.137 24.2897 -61.1605 -0.991252 -0.131985 1 0.5 0 1
59 1 58.6053 10.7611 0 58.6053 10.7611 0 390.651 -244.582 -24.8917 -56.4082 0.453913 0.891046 1 0.5 0 1
60 1 54.2892 37.0848 0 54.2892 37.0848 0 -868.545 -27.6512 -37.6978 3.60389 -0.591022 -0.806655 1 0.5 0 1
61 1 58.8945 39.1952 0 58.8945 39.1952 0 -792.011 -313.403 12.1119 -13.9379 0.502033 -0.864848 1 0.5 0 1
62 1 42.345 28.992 0 42.345 28.992 0 180.173 117.38 19.3919 -102.035 0.0863842 -0.996262 1 0.5 0 1
63 1 67.0409 65.8797 0 -12.2251 65.8797 0 -171.015 -284.569 100.378 73.1581 -0.887919 -0.46 1 0.5 0 1
64 1 57.917 38.8425 0 57.917 38.8425 0 -277.958 -342.274 65.0936 70.4206 0.661417 0.750018 1 0.5 0 1
65 1 72.0103 61.9237 0 72.0103 61.9237 0 213.185 -660.572 12.7876 28.016 -0.445875 0.895095 1 0.5 0 1
66 1 61.7895 67.5448 0 61.7895 67.5448 0 194.038 -109.384 -15.9185 22.1361 0.927032 -0.374983 1 0.5 0 1
67 1 42.8739 21.482 0 42.8739 21.482 0 217.633 -87.36 75.5032 62.8845 0.77175 0.635926 1 0.5 0 1
68 1 34.3803 41.6358 0 34.3803 41.6358 0 377.15 159.825 99.1423 13.0689 0.991423 0.130689 1 0.5 0 1
69 1 42.3664 74.8482 0 42.3664 74.8482 0 218.296 -1043.77 -96.5981 25.8612 -0.965981 0.258612 1 0.5 0 1
70 1 22.4452 74.2253 0 22.4452 74.2253 0 -217.011 70.7733 -41.7701 77.9376 -0.133778 0.991011 1 0.5 0 1
71 1 38.8594 48.7681 0 38.8594 48.7681 0 -84.9789 -392.053 -52.0141 36.0301 -0.947574 0.319536 1 0.5 0 1
72 1 15.7213 66.2063 0 15.7213 66.2063 0 -217.954 -156.216 -180.492 148.238 -0.827427 0.561574 1 0.5 0 1
73 1 77.1281 32.7285 0 77.1281 32.7285 0 -479.736 102.673 155.768 34.2349 0.237551 -0.971375 1 0.5 0 1
74 1 60.7166 61.8943 0 60.7166 61.8943 0 279.176 -28.6135 66.4663 -6.58495 0.999995 0.00329209 1 0.5 0 1
75 1 5.17924 38.7618 0 5.17924 38.7618 0 -146.554 159.066 -40.2968 34.1702 -0.975974 0.217887 1 0.5 0 1
76 1 15.5604 28.2581 0 15.5604 28.2581 0 -582.834 -40.75 194.811 20.4242 -0.980305 -0.19749 1 0.5 0 1
77 1 14.1646 9.73286 0 14.1646 9.73286 0 266.499 700.715 2.54226 74.7422 -0.0832227 0.996531 1 0.5 0 1
78 1 36.4311 47.3201 0 36.4311 47.3201 0 432.075 894.292 75.0777 -11.4 -0.972389 0.233366 1 0.5 0 1
79 1 49.2827 4.47921 0 49.2827 83.7452 0 -277.094 -142.832 -75.1892 56.0669 -0.944308 0.329063 1 0.5 0 1
80 1 42.7972 55.2447 0 42.7972 -24.0213 0 198.885 205.665 -62.956 -66.5847 0.346062 -0.938212 1 0.5 0 1
81 1 10.3896 33.4395 0 89.6556 33.4395 0 880.123 -617.052 32.8525 0.882677 0.984154 0.177313 1 0.5 0 1
82 1 25.3122 27.695 0 25.3122 27.695 0 -267.821 -203.577 -109.563 12.6125 -0.383461 0.923557 1 0.5 0 1
83 1 38.8447 42.8213 0 38.8447 42.8213 0 285.29 124.373 6.42633 84.0426 0.326557 0.945178 1 0.5 0 1
84 1 76.6376 41.5808 0 -2.62836 41.5808 0 -401.912 -687.292 173.18 45.6065 -0.994146 -0.108042 1 0.5 0 1
85 1 28.2532 78.4787 0 28.2532 -0.78733 0 -176.479 -409.829 -131.583 -19.1709 -0.769863 -0.638209 1 0.5 0 1
86 1 35.8105 5.85707 0 35.8105 5.85707 0 470.423 -356.828 -39.051 20.761 -0.983123 -0.182945 1 0.5 0 1
87 1 51.8183 31.8398 0 51.8183 31.8398 0 -194.383 62.1819 -221.408 194.009 0.548169 0.836367 1 0.5 0 1
88 1 60.917 22.3771 0 60.917 22.3771 0 194.532 -282.905 -103.265 130.923 -0.209917 0.977719 1 0.5 0 1
89 1 20.7735 59.4788 0 20.7735 59.4788 0 -215.235 202.318 -41.842 89.5705 -0.15082 0.988561 1 0.5 0 1
90 1 26.182 43.6453 0 26.182 43.6453 0 1186.31 -251.234 10.443 -32.1608 0.406737 -0.913545 1 0.5 0 1
91 1 9.66282 69.2142 0 9.66282 -10.0518 0 340.837 -333.737 -53.4049 -84.5453 -0.534049 -0.845453 1 0.5 0 1
92 1 28.9995 50.0884 0 28.9995 50.0884 0 -365.956 -64.6098 10.8314 106.095 -0.888587 0.458707 1 0.5 0 1
93 1 6.501 55.7871 0 6.501 55.7871 0 30.8827 -5.1871 9.1805 -113.138 -0.870693 -0.491826 1 0.5 0 1
94 1 1.43437 25.0598 0 80.7004 25.0598 0 726.923 -2.66151 46.378 62.1481 0.215466 0.976511 1 0.5 0 1
95 1 64.9601 41.7128 0 64.9601 41.7128 0 -522.557 -4.0332 -95.1247 161.386 0.938766 0.344555 1 0.5 0 1
96 1 54.6937 35.1796 0 54.6937 35.1796 0 27.2545 -98.9787 83.2876 111.133 0.53152 -0.847046 1 0.5 0 1
97 1 63.6984 29.7409 0 63.6984 29.7409 0 1.37475 171.11 3.16175 -140.563 -0.0289669 -0.99958 1 0.5 0 1
98 1 73.8605 68.0963 0 -5.40548 68.0963 0 -810.666 296.055 -30.2196 13.8583 -0.872137 0.489262 1 0.5 0 1
99 1 60.7037 21.281 0 60.7037 21.281 0 372.92 40.5293 -178.973 56.1871 -0.994048 0.108943 1 0.5 0 1
100 1 73.1161 38.6941 0 73.1161 38.6941 0 -171.728 737.269 -170.627 -17.1869 0.857214 -0.514961 1 0.5 0 1
101 1 43.1589 49.7577 0 43.1589 49.7577 0 -24.2886 982.624 -1.20298 -99.9928 -0.0120298 -0.999928 1 0.5 0 1
102 1 5.81034 35.2052 0 5.81034 35.2052 0 -1056.26 -65.1873 -4.8415 8.50169 -0.464611 0.885515 1 0.5 0 1
103 1 23.5874 53.2689 0 23.5874 53.2689 0 731.013 -576.642 59.2699 -160.122 0.0484147 0.998827 1 0.5 0 1
104 1 44.8088 15.202 0 44.8088 94.468 0 50.4948 -80.9522 -25.4824 111.059 0.713358 0.700799 1 0.5 0 1
105 1 70.4293 4.13098 0 -8.8367 4.13098 0 -193.731 7.13517 -76.6439 -4.20473 -0.908023 -0.41892 1 0.5 0 1
106 1 43.0214 45.9998 0 43.0214 45.9998 0 95.9841 -486.702 -44.7044 82.4099 -0.999614 -0.0277943 1 0.5 0 1
107 1 61.9557 30.0413 0 61.9557 30.0413 0 488.15 288.771 -13.9743 -37.662 -0.157136 0.987577 1 0.5 0 1
108 1 7.74869 7.29401 0 7.74869 86.56 0 -109.244 -56.6489 -64.6548 30.4727 -0.535807 0.844341 1 0.5 0 1
109 1 3.36204 53.2658 0 3.36204 53.2658 0 335.703 891.243 30.3117 -39.277 -0.010274 0.999947 1 0.5 0 1
110 1 6.39699 39.6349 0 6.39699 39.6349 0 -216.472 -492.239 -97.3235 -18.5889 -0.817611 0.575771 1 0.5 0 1
111 1 7.90436 27.4018 0 7.90436 27.4018 0 -122.999 722.372 -49.3076 28.2867 0.722731 -0.691129 1 0.5 0 1
112 1 33.6329 48.3196 0 33.6329 48.3196 0 -123.684 93.2188 0.34315 -118.521 -0.619417 -0.785062 1 0.5 0 1
113 1 67.864 69.5562 0 -11.402 -9.70978 0 703.105 -246.874 1.80971 -53.7783 -0.570448 -0.821334 1 0.5 0 1
114 1 16.5474 28.6479 0 16.5474 28.6479 0 -851.328 -22.8706 -22.6326 17.9387 -0.994561 -0.104157 1 0.5 0 1
115 1 8.59593 71.927 0 8.59593 -7.33895 0 347.596 -269.169 -87.7802 -47.9024 -0.877802 -0.479024 1 0.5 0 1
116 1 19.5415 16.8913 0 19.5415 16.8913 0 -481.426 416.918 86.2241 -112.208 -0.00148115 -0.999999 1 0.5 0 1
117 1 61.9468 51.6851 0 61.9468 51.6851 0 -2.4079 611.308 107.565 46.0271 0.863022 0.505166 1 0.5 0 1
118 1 58.5216 45.401 0 58.5216 45.401 0 -173.308 -436.541 46.3885 -71.3221 0.695761 -0.718274 1 0.5 0 1
119 1 13.2006 9.25118 0 13.2006 9.25118 0 133.84 -528.893 44.9087 34.0415 -0.433068 0.901361 1 0.5 0 1
120 1 63.4931 28.6148 0 63.4931 28.6148 0 265.805 -863.418 -48.1809 48.2321 0.942925 -0.333007 1 0.5 0 1
121 1 64.6854 22.0742 0 -14.5806 22.0742 0 180.632 -713.169 -90.8378 -83.3467 -0.995663 0.0930323 1 0.5 0 1
122 1 45.4864 47.2705 0 45.4864 47.2705 0 -347.946 -142.469 -49.6781 74.2227 -0.929717 0.368275 1 0.5 0 1
123 1 28.6425 27.7906 0 28.6425 27.7906 0 296.517 373.451 -8.61856 33.9471 -0.996711 -0.0810336 1 0.5 0 1
124 1 53.2351 9.19457 0 53.2351 9.19457 0 210.36 209.151 81.0087 33.4966 0.316065 0.948738 1 0.5 0 1
125 1 38.8953 21.4759 0 38.8953 21.4759 0 -507.474 -308.961 54.9652 -55.138 0.661091 -0.750306 1 0.5 0 1
126 1 64.8004 66.8222 0 64.8004 66.8222 0 682.288 315.596 -48.4069 -34.2884 0.671464 0.741037 1 0.5 0 1
127 1 58.2721 5.20147 0 58.2721 84.4675 0 431.049 177.629 -52.7543 23.7782 0.427257 0.90413 1 0.5 0 1
128 1 68.2882 53.4195 0 -10.9778 53.4195 0 -165.325 -737.495 -129.45 -106.504 -0.801099 -0.598532 1 0.5 0 1
129 1 50.3261 76.7003 0 50.3261 -2.56573 0 401.076 454.601 78.5964 -86.6167 0.433748 -0.901034 1 0.5 0 1
130 1 54.1367 63.2824 0 54.1367 -15.9836 0 -463.638 -17.995 53.4177 -53.175 0.493915 -0.86951 1 0.5 0 1
131 1 14.4569 58.0823 0 14.4569 58.0823 0 210.322 -499.007 -27.1618 -82.1539 -0.958349 0.285599 1 0.5 0 1
132 1 22.0601 5.60718 0 22.0601 84.8732 0 -754.672 -603.717 -104.873 36.4445 -0.927853 0.372947 1 0.5 0 1
133 1 68.9283 7.36174 0 68.9283 86.6277 0 -40.0941 385.544 -20.6538 9.16186 0.560995 0.827819 1 0.5 0 1
134 1 70.2538 65.7179 0 70.2538 65.7179 0 -368.349 -166.392 -103.405 -86.7741 -0.424558 0.905401 1 0.5 0 1
135 1 78.5002 77.2191 0 78.5002 77.2191 0 -22.1777 -57.6942 53.7691 -36.7165 -0.740526 0.672028 1 0.5 0 1
136 1 14.5694 77.5815 0 14.5694 77.5815 0 -19.7338 579.712 17.4128 24.2167 0.494462 0.869199 1 0.5 0 1
137 1 10.9692 35.5704 0 90.2352 35.5704 0 682.603 254.17 30.993 -19.6203 0.972265 -0.233882 1 0.5 0 1
138 1 52.7924 31.9309 0 52.7924 31.9309 0 -1350.6 -146.308 220.81 -74.5447 -0.91825 0.396001 1 0.5 0 1
139 1 44.0864 2.9065 0 44.0864 2.9065 0 -55.1821 713.602 18.8616 -32.7771 -0.691644 -0.722238 1 0.5 0 1
140 1 23.3587 11.3583 0 23.3587 11.3583 0 206.306 -79.2422 -2.46488 -104.656 -0.301892 -0.953342 1 0.5 0 1
141 1 41.0938 39.4741 0 41.0938 39.4741 0 171.133 -92.3877 -7.6876 -63.0707 -0.980186 -0.198081 1 0.5 0 1
142 1 31.9438 54.0465 0 31.9438 54.0465 0 604.639 -860.877 -31.1121 50.6111 -0.607204 0.794546 1 0.5 0 1
143 1 25.819 68.7254 0 25.819 68.7254 0 68.0914 115.239 52.0795 81.0119 0.441476 0.897273 1 0.5 0 1
144 1 58.0748 18.83 0 58.0748 18.83 0 -225.054 969.193 -20.5677 -10.5588 -0.71064 -0.703556 1 0.5 0 1
145 1 70.259 60.4647 0 70.259 60.4647 0 -85.563 -354.365 -61.856 42.3695 -0.215402 0.976526 1 0.5 0 1
146 1 29.1018 6.82504 0 29.1018 6.82504 0 -406.053 182.291 -64.369 -73.0729 -0.845522 -0.533941 1 0.5 0 1
147 1 77.9405 28.7168 0 77.9405 28.7168 0 398.831 -70.9342 9.44187 -30.0137 0.650436 -0.759561 1 0.5 0 1
148 1 79.1349 13.2215 0 79.1349 13.2215 0 -628.993 827.353 27.4185 -34.0135 0.804322 -0.594193 1 0.5 0 1
149 1 61.7871 12.7047 0 61.7871 91.9707 0 419.534 17.0335 -78.9683 -150.754 0.520502 0.85386 1 0.5 0 1
150 1 6.11462 22.0849 0 6.11462 22.0849 0 -408.12 -72.2555 -136.689 70.6356 -0.91442 0.404766 1 0.5 0 1
151 1 69.1167 79.257 0 69.1167 -0.00899048 0 57.3557 647.194 119.537 35.364 0.583221 -0.812314 1 0.5 0 1
152 1 9.26249 17.6574 0 9.26249 96.9234 0 -457.077 207.053 5.03194 -4.70963 0.691521 0.722357 1 0.5 0 1
153 1 59.1679 60.1591 0 59.1679 60.1591 0 -350.621 481.65 -19.8917 -51.331 0.999868 -0.0162527 1 0.5 0 1
154 1 0.80998 57.8839 0 0.80998 57.8839 0 24.9096 -165.144 17.1325 2.45496 -0.0564153 -0.998407 1 0.5 0 1
155 1 66.1561 4.99255 0 -13.1099 4.99255 0 -112.453 946.193 -262.297 -128.869 -0.980691 -0.195563 1 0.5 0 1
156 1 72.7615 43.3817 0 72.7615 43.3817 0 -135.555 -200.556 -125.628 12.8602 0.979057 0.203588 1 0.5 0 1
157 1 0.141231 9.33989 0 0.141231 9.33989 0 240.199 -62.3362 -2.88867 -93.9326 -0.948049 -0.318125 1 0.5 0 1
158 1 76.1409 32.5526 0 -3.12508 32.5526 0 906.41 -67.8652 -170.735 -6.86153 -0.99388 -0.11047 1 0.5 0 1
159 1 73.5406 52.6738 0 73.5406 52.6738 0 -489.911 231.983 85.2681 50.2649 0.999715 -0.0238617 1 0.5 0 1
160 1 20.3267 33.6672 0 20.3267 33.6672 0 898.118 140.865 9.2582 -99.5705 0.092582 -0.995705 1 0.5 0 1
161 1 3.83422 35.853 0 3.83422 35.853 0 390.432 621.176 -97.4372 -0.333989 -0.99947 0.0325385 1 0.5 0 1
162 1 14.5502 59.141 0 14.5502 59.141 0 -480.048 436.733 20.556 -17.6099 -0.562092 -0.827075 1 0.5 0 1
163 1 62.1724 41.8441 0 62.1724 41.8441 0 104.653 170.547 122.016 -14.615 0.985976 -0.166889 1 0.5 0 1
164 1 26.7814 59.6257 0 26.7814 59.6257 0 960.616 468.056 51.2482 15.4019 0.503194 -0.864173 1 0.5 0 1
165 1 41.4651 41.1587 0 41.4651 41.1587 0 -131.373 208.217 -5.6922 -68.7614 0.117027 -0.993129 1 0.5 0 1
166 1 57.5084 20.8339 0 57.5084 20.8339 0 149.424 104.086 76.4852 -11.7881 -0.926939 0.375211 1 0.5 0 1
167 1 33.0142 26.4807 0 33.0142 26.4807 0 -1232.86 401.282 39.9954 -58.7101 0.999997 -0.00262892 1 0.5 0 1
168 1 51.3319 59.6878 0 51.3319 59.6878 0 -460.751 -85.7943 50.5393 69.3753 0.601442 0.798917 1 0.5 0 1
169 1 38.8572 63.033 0 38.8572 63.033 0 237.758 -885.768 30.5989 20.2902 -0.0289376 0.999581 1 0.5 0 1
170 1 76.7206 58.2246 0 76.7206 58.2246 0 30.6102 668.556 -52.3219 32.6915 -0.164832 0.986322 1 0.5 0 1
171 1 4.03383 51.6665 0 83.2998 51.6665 0 -485.616 -169.406 15.4258 -98.8031 0.154258 -0.988031 1 0.5 0 1
172 1 36.4022 66.5773 0 36.4022 -12.6887 0 -690.129 119.33 -81.9309 -48.0303 -0.59576 -0.803162 1 0.5 0 1
173 1 49.1639 37.2569 0 49.1639 37.2569 0 -348.212 -1007.01 -33.3536 39.3896 -0.0227251 -0.999742 1 0.5 0 1
174 1 22.626 32.3866 0 22.626 32.3866 0 -511.739 -34.2267 -85.5288 9.29996 -0.600287 0.799784 1 0.5 0 1
175 1 14.8242 5.17015 0 14.8242 5.17015 0 405.093 549.382 2.6683 -75.7287 0.980066 0.19867 1 0.5 0 1
176 1 36.2818 59.0546 0 36.2818 59.0546 0 507.256 411.859 80.1436 -44.6554 -0.992064 0.12573 1 0.5 0 1
177 1 39.5932 66.1821 0 39.5932 66.1821 0 731.716 499.16 -109.46 56.2385 -0.870256 0.4926 1 0.5 0 1
178 1 73.8626 6.84066 0 -5.40336 86.1067 0 -513.795 25.0769 94.2093 -63.0878 -0.539942 0.841702 1 0.5 0 1
179 1 23.7993 66.9106 0 23.7993 -12.3554 0 304.968 -317.477 -52.2164 -150.924 -0.671419 -0.741078 1 0.5 0 1
180 1 75.3477 37.2191 0 75.3477 37.2191 0 -446.201 -52.2845 118.435 89.8909 0.858946 0.512066 1 0.5 0 1
181 1 60.0386 23.0359 0 60.0386 23.0359 0 601.204 645.698 79.55 84.6647 0.449552 0.893254 1 0.5 0 1
182 1 49.4446 18.3325 0 49.4446 97.5985 0 -5.14252 181.243 -44.4885 103.359 -0.104144 0.994562 1 0.5 0 1
183 1 29.3406 7.89255 0 29.3406 7.89255 0 -268.605 -130.559 48.2623 -36.6599 -0.0731285 -0.997323 1 0.5 0 1
184 1 64.6284 35.6675 0 64.6284 35.6675 0 145.116 245.079 41.817 41.2158 -0.888118 0.459615 1 0.5 0 1
185 1 62.1588 49.943 0 62.1588 49.943 0 -304.097 -583.575 -28.5963 98.5528 0.506081 -0.862486 1 0.5 0 1
186 1 38.491 40.7061 0 38.491 40.7061 0 -207.443 809.688 -9.21183 93.5632 -0.0644803 0.997919 1 0.5 0 1
187 1 2.51422 1.15067 0 2.51422 80.4167 0 -780.029 92.6475 8.87013 -129.096 -0.684605 0.728915 1 0.5 0 1
188 1 72.8214 63.6696 0 72.8214 63.6696 0 -147.797 328.258 -47.0401 36.6307 -0.555448 -0.831551 1 0.5 0 1
189 1 4.75557 23.1574 0 4.75557 23.1574 0 764.485 1017.25 15.7057 -58.3411 0.223213 -0.97477 1 0.5 0 1
190 1 10.9191 56.1116 0 10.9191 56.1116 0 194.421 -613.983 -16.4296 45.162 -0.780958 0.624583 1 0.5 0 1
191 1 6.33073 77.2384 0 85.5967 -2.02761 0 248.158 445.773 64.3758 52.1957 0.799449 -0.600733 1 0.5 0 1
192 1 59.296 27.2972 0 59.296 27.2972 0 702.23 -372.249 -2.62558 -67.156 0.533196 0.845992 1 0.5 0 1
193 1 28.3809 10.1439 0 28.3809 10.1439 0 -204.63 47.6484 -99.9441 -3.34457 -0.999441 -0.0334457 1 0.5 0 1
194 1 52.9866 58.8804 0 52.9866 58.8804 0 400.851 267.175 -1.5959 -28.9554 -0.427418 0.904054 1 0.5 0 1
195 1 26.8751 26.4541 0 26.8751 26.4541 0 -774.1 -46.1193 -7.14954 64.1873 0.763404 0.645922 1 0.5 0 1
196 1 61.1732 34.013 0 61.1732 34.013 0 -350.357 -117.231 54.5478 -42.8535 0.258228 -0.966084 1 0.5 0 1
197 1 15.3192 52.0073 0 15.3192 52.0073 0 867.955 -73.8109 41.1878 33.1615 0.585946 0.81035 1 0.5 0 1
198 1 74.3771 40.1568 0 74.3771 40.1568 0 246.961 -628.379 12.3739 47.6316 0.544058 -0.839047 1 0.5 0 1
199 1 23.0404 24.0479 0 23.0404 24.0479 0 471.853 -860.436 -67.9474 -9.89947 -0.56253 0.826777 1 0.5 0 1
200 1 8.88412 55.866 0 8.88412 55.866 0 101.98 -99.5233 -95.3386 18.2486 0.814108 0.580713 1 0.5 0 1
201 1 34.5117 61.1824 0 34.5117 -18.0836 0 -220.662 448.935 137.529 27.6061 -0.311863 -0.950127 1 0.5 0 1
202 1 63.5278 20.6371 0 -15.7382 20.6371 0 923.857 29.4476 -50.9696 13.734 -0.963123 -0.269063 1 0.5 0 1
203 1 21.7374 61.5342 0 21.7374 61.5342 0 400.791 -325.947 -76.9668 -18.198 -0.524366 0.851493 1 0.5 0 1
204 1 11.1419 23.1296 0 11.1419 23.1296 0 1.41792 704.266 28.2854 -21.1835 0.544893 0.838505 1 0.5 0 1
205 1 32.5686 57.7063 0 32.5686 57.7063 0 -462.893 -309.781 -89.0052 -71.8521 -0.979666 -0.200633 1 0.5 0 1
206 1 13.2387 4.722 0 13.2387 4.722 0 99.2874 222.177 157.358 -78.1607 -0.827122 -0.562023 1 0.5 0 1
207 1 19.3333 50.683 0 19.3333 50.683 0 -774.858 63.2642 -85.2898 55.047 -0.395598 0.918424 1 0.5 0 1
208 1 66.4087 63.9975 0 66.4087 63.9975 0 -46.1326 -66.8984 103.239 -152.01 -0.793113 -0.609074 1 0.5 0 1
209 1 59.487 20.0145 0 59.487 20.0145 0 778.706 -699.348 -156.131 -111.76 -0.380066 0.924959 1 0.5 0 1
210 1 23.1619 5.68468 0 23.1619 84.9507 0 -197.758 -31.3831 -80.8109 76.566 -0.971896 0.235409 1 0.5 0 1
211 1 61.886 34.8194 0 61.886 34.8194 0 117.877 -145.993 85.9876 64.3147 -0.317075 0.9484 1 0.5 0 1
212 1 78.1927 72.8537 0 78.1927 -6.41229 0 518.494 -636.683 29.1151 -80.0528 0.970307 -0.241875 1 0.5 0 1
213 1 25.5678 62.7532 0 25.5678 62.7532 0 73.769 184.568 99.7534 -10.4825 0.98549 -0.169734 1 0.5 0 1
214 1 45.7767 73.8449 0 45.7767 73.8449 0 445.647 44.397 16.0373 40.1109 0.650021 0.759917 1 0.5 0 1
215 1 6.44948 58.2949 0 6.44948 -20.9711 0 -470.734 444.428 25.919 -37.4496 0.999912 0.013275 1 0.5 0 1
216 1 19.0061 6.63287 0 19.0061 85.8989 0 352.327 266.922 49.7642 35.0889 -0.616312 0.787502 1 0.5 0 1
217 1 50.6782 38.3777 0 50.6782 38.3777 0 170.594 -342.653 -29.0647 37.8334 -0.146751 -0.989173 1 0.5 0 1
218 1 21.7638 35.177 0 21.7638 35.177 0 -667.721 -232.126 -2.7834 -128.211 0.965636 0.259899 1 0.5 0 1
219 1 49.1157 45.1109 0 49.1157 45.1109 0 1163.9 -889.781 48.1393 -18.8478 -0.165342 -0.986236 1 0.5 0 1
220 1 58.8363 8.59335 0 58.8363 8.59335 0 688.946 -435.259 85.851 -69.2003 0.62689 -0.779108 1 0.5 0 1
221 1 53.9297 43.5931 0 53.9297 43.5931 0 951.154 132.88 -52.0635 85.378 -0.520635 0.85378 1 0.5 0 1
222 1 39.5563 1.64927 0 39.5563 1.64927 0 -134.747 -328.161 -14.8293 -70.667 -0.399109 -0.916903 1 0.5 0 1
223 1 2.60927 32.272 0 2.60927 32.272 0 172.83 -195.291 -90.0118 -71.7187 -0.278944 0.960307 1 0.5 0 1
224 1 73.7641 63.0324 0 -5.50185 63.0324 0 148.775 160.363 50.8079 -150.921 -0.939296 0.343108 1 0.5 0 1
225 1 0.468779 6.16063 0 79.7348 6.16063 0 20.9903 256.21 2.81049 -154.171 0.337058 -0.941484 1 0.5 0 1
226 1 48.8373 33.666 0 48.8373 33.666 0 806.113 -787.212 -13.3512 -56.3489 -0.754141 -0.656713 1 0.5 0 1
227 1 67.1281 14.0502 0 67.1281 14.0502 0 -418.476 97.4647 69.7555 39.2614 0.994197 0.107572 1 0.5 0 1
228 1 24.032 70.7943 0 24.032 70.7943 0 373.189 -581.687 -50.7029 -46.5641 -0.579785 0.81477 1 0.5 0 1
229 1 57.3414 23.6056 0 57.3414 23.6056 0 24.7047 485.383 -12.2448 56.8088 0.99573 -0.0923104 1 0.5 0 1
230 1 66.252 19.7105 0 66.252 98.9765 0 630.056 286.996 -20.7126 9.38856 -0.736832 0.676076 1 0.5 0 1
231 1 39.1182 51.9211 0 39.1182 51.9211 0 427.815 856.589 80.2024 59.7291 0.802024 0.597291 1 0.5 0 1
232 1 31.3167 63.9445 0 31.3167 -15.3215 0 626.739 -505.967 42.2302 -9.08312 -0.484401 -0.874846 1 0.5 0 1
233 1 45.6145 43.3988 0 45.6145 43.3988 0 438.7 -168.91 57.4693 7.81457 -0.96024 -0.279174 1 0.5 0 1
234 1 44.0676 70.6745 0 44.0676 -8.59151 0 -536.154 -1002.06 -92.8543 -37.1224 -0.928543 -0.371224 1 0.5 0 1
235 1 20.5838 69.1101 0 20.5838 69.1101 0 5.36693 216.638 42.2903 -6.11143 -0.315529 0.948916 1 0.5 0 1
236 1 64.9817 65.7706 0 64.9817 65.7706 0 -499.855 138.362 -7.91895 -15.0094 0.954179 0.299236 1 0.5 0 1
237 1 31.524 28.914 0 31.524 28.914 0 123.442 335.602 30.2869 -59.8702 0.657793 0.753199 1 0.5 0 1
238 1 55.839 48.8114 0 55.839 48.8114 0 333.554 -370.719 -101.955 10.9879 -0.485015 -0.874506 1 0.5 0 1
239 1 8.95838 24.0001 0 88.2244 24.0001 0 84.8617 363.286 82.9828 15.5716 0.566641 0.823965 1 0.5 0 1
240 1 11.417 36.7083 0 11.417 36.7083 0 304.318 -185.771 1.53679 40.2015 0.986963 0.160945 1 0.5 0 1
241 1 58.3428 71.6223 0 58.3428 71.6223 0 487.571 136.482 -60.5207 6.93285 -0.903385 -0.42883 1 0.5 0 1
242 1 65.5876 69.6899 0 65.5876 -9.57613 0 167.914 -541.629 -125.805 160.358 0.949643 -0.313334 1 0.5 0 1
243 1 16.6043 65.7074 0 16.6043 65.7074 0 535.138 231.911 -27.694 26.8114 -0.963391 -0.268102 1 0.5 0 1
244 1 50.3488 41.9093 0 50.3488 41.9093 0 -215.975 -472.907 -98.0941 -193.587 -0.991711 -0.128489 1 0.5 0 1
245 1 52.1359 33.8583 0 52.1359 33.8583 0 -569.213 -136.864 28.3727 1.72475 0.326477 0.945205 1 0.5 0 1
246 1 21.742 33.1729 0 21.742 33.1729 0 -184.4 61.331 74.6192 -74.4628 0.995436 -0.0954289 1 0.5 0 1
247 1 59.5658 67.2026 0 59.5658 -12.0634 0 -192.882 -256.076 18.1876 -98.3321 0.181876 -0.983321 1 0.5 0 1
248 1 70.7203 5.25346 0 -8.54568 84.5195 0 -396.619 -406.324 3.46442 2.19356 -0.526556 0.850141 1 0.5 0 1
249 1 45.0386 18.5705 0 45.0386 18.5705 0 254.942 -703.785 77.1762 187.8 0.971692 0.23625 1 0.5 0 1
250 1 11.5153 28.3236 0 90.7813 28.3236 0 -257.274 -399.957 -11.5986 57.7397 0.996353 0.0853232 1 0.5 0 1
251 1 34.1341 8.62324 0 34.1341 87.8892 0 34.6713 445.447 39.736 91.7663 0.39736 0.917663 1 0.5 0 1
252 1 19.3949 66.4862 0 19.3949 66.4862 0 -34.8679 -203.736 -25.8856 116.59 -0.305705 0.952126 1 0.5 0 1
253 1 17.5932 34.864 0 17.5932 34.864 0 -898.182 -103.999 -55.2262 101.362 -0.545017 0.838425 1 0.5 0 1
254 1 37.6511 51.5143 0 37.6511 51.5143 0 -199.03 341.498 0.926821 -11.9185 0.368948 0.92945 1 0.5 0 1
255 1 8.40179 5.07218 0 87.6678 84.3382 0 -289.031 122.577 -25.9387 -16.4576 0.576673 0.816975 1 0.5 0 1
256 1 69.9604 35.4533 0 -9.30563 35.4533 0 -537.906 103.094 61.8033 4.86626 -0.983551 -0.18063 1 0.5 0 1
257 1 33.5146 2.04646 0 33.5146 81.3125 0 -238.266 -144.358 -31.0774 15.8554 -0.830735 0.556669 1 0.5 0 1
258 1 17.9358 21.4999 0 17.9358 21.4999 0 -293.632 -3.30508 7.40451 -39.741 0.814405 -0.580297 1 0.5 0 1
259 1 10.5344 11.1933 0 89.8004 11.1933 0 -66.4927 887.166 26.4096 79.3838 0.585562 0.810627 1 0.5 0 1
260 1 3.96343 48.2482 0 83.2294 48.2482 0 -297.423 782.687 -55.7531 36.1132 0.998784 -0.0492968 1 0.5 0 1
261 1 11.8233 27.2859 0 11.8233 27.2859 0 180.658 19.0906 4.58606 -53.6738 -0.230357 -0.973106 1 0.5 0 1
262 1 19.5725 12.8215 0 98.8385 12.8215 0 1190.97 -77.7947 67.505 -17.8069 0.999662 0.0259816 1 0.5 0 1
263 1 5.26897 4.90528 0 5.26897 4.90528 0 -278.637 25.6449 -131.825 88.6328 -0.838487 -0.544921 1 0.5 0 1
264 1 12.2362 23.4575 0 91.5022 23.4575 0 -291.25 121.518 36.4091 -66.0663 0.899125 0.437692 1 0.5 0 1
265 1 20.1301 0.796823 0 20.1301 80.0628 0 565.429 355.886 -36.3455 4.29085 -0.621608 0.783329 1 0.5 0 1
266 1 38.0218 62.4419 0 38.0218 62.4419 0 -128.442 -353.275 -18.2914 -17.3164 0.625788 -0.779993 1 0.5 0 1
267 1 13.6623 16.3572 0 13.6623 16.3572 0 771.643 61.7218 -2.17013 -1.00888 -0.994743 -0.102405 1 0.5 0 1
268 1 64.843 78.6437 0 64.843 78.6437 0 -637.62 -33.8073 100.339 -10.1661 0.988104 -0.153788 1 0.5 0 1
269 1 25.478 22.7958 0 104.744 22.7958 0 519.525 255.954 100.64 -27.338 0.830614 -0.556849 1 0.5 0 1
270 1 9.35861 13.8884 0 88.6246 13.8884 0 558.342 -942.514 -126.111 -39.1897 0.939416 0.34278 1 0.5 0 1
271 1 32.6289 58.7568 0 32.6289 58.7568 0 -1.73053 -189.817 -9.78602 -7.10927 0.691435 -0.722439 1 0.5 0 1
272 1 58.3076 24.2483 0 58.3076 24.2483 0 228.287 93.5006 75.4793 42.8353 0.961221 0.275779 1 0.5 0 1
273 1 40.6808 43.7976 0 40.6808 43.7976 0 -155.64 839.946 131.531 36.533 0.962669 0.270683 1 0.5 0 1
274 1 34.8046 5.62238 0 34.8046 5.62238 0 862.104 -342.756 -25.2847 -15.7051 0.415643 -0.909528 1 0.5 0 1
275 1 37.1081 76.5007 0 37.1081 -2.76529 0 438.322 -233.284 45.437 -0.839607 0.574282 -0.818657 1 0.5 0 1
276 1 54.3275 34.246 0 54.3275 34.246 0 -28.9611 483.073 45.0097 -31.4741 0.515981 0.8566 1 0.5 0 1
277 1 70.5273 48.5812 0 -8.73865 48.5812 0 -273.178 -303.682 -65.042 60.0034 -0.855603 0.517633 1 0.5 0 1
278 1 9.77685 54.0379 0 9.77685 54.0379 0 -105.687 -27.4256 -65.7061 62.9949 -0.718387 0.695644 1 0.5 0 1
279 1 72.9994 30.972 0 72.9994 30.972 0 539.554 -180.283 -130.198 134.539 0.914313 0.405009 1 0.5 0 1
280 1 68.119 2.08382 0 68.119 2.08382 0 245.595 -186.018 41.5155 -66.0917 -0.102633 -0.994719 1 0.5 0 1
281 1 50.8389 40.1595 0 50.8389 40.1595 0 -1310.89 112.32 124.157 -29.2268 0.0108597 0.999941 1 0.5 0 1
282 1 34.7554 25.1583 0 34.7554 25.1583 0 56.9408 -470.591 54.9891 -33.4051 0.850644 -0.525743 1 0.5 0 1
283 1 10.4667 74.5183 0 10.4667 74.5183 0 1001.05 -514.568 -10.356 121.238 -0.471905 0.881649 1 0.5 0 1
284 1 2.93744 75.2803 0 2.93744 75.2803 0 -818.941 61.1239 23.223 -120.603 -0.957577 0.288179 1 0.5 0 1
285 1 77.4785 34.8036 0 77.4785 34.8036 0 38.4897 140.602 56.2039 -32.0341 0.131467 -0.991321 1 0.5 0 1