ITEM: TIMESTEP
500000
ITEM: NUMBER OF ATOMS
4000
ITEM: BOX BOUNDS pp pp pp
0.0000000000000000e+00 7.9266000000000005e+01
0.0000000000000000e+00 7.9266000000000005e+01
-5.0000000000000000e-01 5.0000000000000000e-01
ITEM: ATOMS id type x y z xu yu zu vx vy fx fy mux muy mu radius omegaz mass
1 1 8.8409 65.9122 0 88.1069 65.9122 0 602.748 -227.2 -69.2284 -44.192 -0.832431 -0.554129 1 0.5 0 1
2 1 60.1489 20.2136 0 60.1489 20.2136 0 619.369 58.9707 -87.3931 -210.996 -0.99794 0.0641496 1 0.5 0 1
3 1 41.84 34.4565 0 41.84 -44.8095 0 -373.523 -217.524 -8.53766 -58.23 0.738921 0.673792 1 0.5 0 1
4 1 0.802817 17.0443 0 0.802817 17.0443 0 290.903 0.0646876 109.866 33.8525 -0.645881 0.763438 1 0.5 0 1
5 1 0.463588 32.4187 0 0.463588 32.4187 0 34.9511 60.4607 -57.6546 0.661013 -0.985301 0.170826 1 0.5 0 1
6 1 67.7773 31.1596 0 -11.4887 31.1596 0 317.656 -83.8507 -149.76 28.7203 0.999971 0.00767805 1 0.5 0 1
7 1 66.9243 51.8825 0 66.9243 51.8825 0 -178.331 -562.995 114.052 16.126 -0.391346 0.920244 1 0.5 0 1
8 1 18.5192 17.3545 0 18.5192 -61.9115 0 -263.742 -1370.97 72.6262 -68.7418 0.726262 -0.687418 1 0.5 0 1
9 1 66.1669 28.9457 0 66.1669 28.9457 0 110.048 -79.7748 -62.6987 -28.8778 0.927063 0.374906 1 0.5 0 1
10 1 22.4739 57.3942 0 22.4739 57.3942 0 97.5941 869.408 -108.3 -71.0909 -0.999486 0.0320573 1 0.5 0 1
11 1 63.8538 14.6777 0 -94.6782 14.6777 0 430.129 145.727 134.602 94.0865 0.879406 0.476072 1 0.5 0 1
12 1 77.4769 23.5968 0 77.4769 102.863 0 -126.808 580.947 -36.3413 -272.714 -0.618054 -0.786136 1 0.5 0 1
13 1 77.1034 66.0124 0 77.1034 -13.2536 0 -107.845 188.445 165.566 -28.6559 -0.991829 0.127575 1 0.5 0 1
14 1 13.6011 40.825 0 -144.931 40.825 0 -126.207 -383.454 40.5571 -13.1042 -0.775981 0.630756 1 0.5 0 1
15 1 8.72406 36.9457 0 8.72406 36.9457 0 -2.60595 -648.21 -12.473 -62.8553 -0.971608 -0.236595 1 0.5 0 1
16 1 16.2611 51.8587 0 -63.0049 -27.4073 0 408.042 -359.125 -21.4276 63.4492 0.186475 -0.98246 1 0.5 0 1
17 1 42.0862 39.5414 0 121.352 118.807 0 -689.768 -140.006 -71.0504 96.3121 0.787016 0.616933 1 0.5 0 1
18 1 3.67989 78.0444 0 3.67989 -1.2216 0 -296.358 93.052 94.7632 -31.9364 0.947632 -0.319364 1 0.5 0 1
19 1 3.61145 44.5756 0 3.61145 44.5756 0 589.712 -343.225 -41.7637 82.9052 -0.288109 0.957598 1 0.5 0 1
20 1 37.9167 53.7064 0 37.9167 53.7064 0 -170.736 -340.898 -131.017 9.31507 0.810869 -0.585228 1 0.5 0 1
21 1 1.41865 29.005 0 1.41865 29.005 0 121.755 1126.61 -46.3965 -200.483 0.959792 0.280713 1 0.5 0 1
22 1 78.9081 22.1122 0 78.9081 22.1122 0 -201.902 93.5721 -53.5016 -2.27081 -0.805706 -0.592315 1 0.5 0 1
23 1 41.7352 47.6944 0 121.001 47.6944 0 263.512 -532.671 4.71631 -0.559212 -0.609554 -0.792744 1 0.5 0 1
24 1 67.33 59.0784 0 67.33 -20.1876 0 743.649 330.113 -110.971 22.534 -0.327209 -0.944952 1 0.5 0 1
25 1 46.7882 30.6363 0 -32.4778 -48.6297 0 50.1466 1014.63 48.7459 153.578 -0.813674 -0.581321 1 0.5 0 1
26 1 46.9115 76.1859 0 46.9115 -82.3461 0 1043.21 184.763 -50.6819 86.2052 -0.506819 0.862052 1 0.5 0 1
27 1 71.9068 20.5673 0 -7.35919 99.8333 0 207.903 -1043.97 -110.082 -15.802 0.931247 -0.364389 1 0.5 0 1
28 1 55.4521 9.76569 0 -23.8139 89.0317 0 289.401 203.335 -100.402 37.4722 -0.87815 0.478386 1 0.5 0 1
29 1 73.7895 39.9108 0 -5.47651 39.9108 0 673.708 -36.6077 109.207 100.749 -0.983605 -0.180337 1 0.5 0 1
30 1 16.1873 16.4434 0 95.4533 95.7094 0 258.752 2.8642 53.3094 3.41987 0.889944 0.45607 1 0.5 0 1
31 1 72.1685 27.759 0 -7.09747 27.759 0 -45.5891 -1019.24 -197.559 66.4968 -0.434927 0.900466 1 0.5 0 1
32 1 1.11213 18.0132 0 1.11213 18.0132 0 166.303 -315.55 50.8262 172.783 0.0238199 -0.999716 1 0.5 0 1
33 1 65.9982 60.5736 0 65.9982 -18.6924 0 747.49 16.5692 -43.2938 -142.51 0.95269 -0.303943 1 0.5 0 1
34 1 9.41439 48.9714 0 88.6804 48.9714 0 407.983 298.129 -65.6574 -96.2048 -0.880803 0.473483 1 0.5 0 1
35 1 23.1144 45.7423 0 -56.1516 45.7423 0 -55.0657 177.237 -13.2714 -49.3784 -0.979657 0.20068 1 0.5 0 1
36 1 59.5306 61.3453 0 59.5306 -17.9207 0 -240.022 499.962 95.1303 -74.3988 -0.295877 0.955226 1 0.5 0 1
37 1 69.3789 44.3412 0 69.3789 44.3412 0 -322.66 -60.4602 19.0134 -131.786 -0.31735 0.948308 1 0.5 0 1
38 1 10.624 0.144331 0 169.156 79.4103 0 -915.187 494.812 -24.3092 -137.537 0.259303 -0.965796 1 0.5 0 1
39 1 7.64718 24.2403 0 86.9132 -55.0257 0 -293.684 1400.62 83.6621 -11.1255 0.742487 -0.669861 1 0.5 0 1
40 1 58.0799 17.5661 0 -21.1861 96.8321 0 434.756 464.032 181.897 40.4536 0.247961 0.96877 1 0.5 0 1
41 1 69.4486 54.2906 0 69.4486 54.2906 0 -225.48 375.591 170.181 -3.59304 0.975904 -0.218201 1 0.5 0 1
42 1 75.8894 58.9371 0 -3.37661 58.9371 0 -241.929 -103.337 31.0622 28.4329 0.253872 -0.967238 1 0.5 0 1
43 1 77.0614 16.3233 0 -81.4706 95.5893 0 463.86 -706.512 -53.289 89.8795 -0.999553 -0.0298998 1 0.5 0 1
44 1 63.2781 21.9538 0 63.2781 101.22 0 351.103 -267.472 -151.682 -50.304 0.559212 0.829025 1 0.5 0 1
45 1 23.2414 55.6593 0 23.2414 -102.873 0 217.509 -45.4692 32.0372 133.796 -0.590912 -0.806736 1 0.5 0 1
46 1 4.87571 45.8406 0 4.87571 45.8406 0 678.013 -538.622 -112.334 -33.2336 -0.269723 -0.962938 1 0.5 0 1
47 1 59.4483 64.1115 0 59.4483 -15.1545 0 1345.72 -130.347 -118.058 61.1711 -0.722012 0.691881 1 0.5 0 1
48 1 15.4494 47.9148 0 15.4494 47.9148 0 -224.372 -92.8809 -63.0356 -88.2704 0.446528 0.89477 1 0.5 0 1
49 1 36.4404 75.1992 0 36.4404 75.1992 0 268.222 559.157 21.1753 97.7323 0.211753 0.977323 1 0.5 0 1
50 1 67.5224 11.9207 0 -11.7436 11.9207 0 288.642 -504.76 -2.73204 52.2188 0.941835 0.336077 1 0.5 0 1
51 1 44.3469 60.2871 0 -114.185 -18.9789 0 -6.7293 1024.38 26.516 -24.5862 0.684271 -0.729228 1 0.5 0 1
52 1 1.73506 33.6721 0 81.0011 33.6721 0 99.777 -442.424 143.226 -132.316 0.945371 -0.325995 1 0.5 0 1
53 1 15.329 57.9963 0 15.329 137.262 0 183.809 -639.78 114.137 257.693 -0.220484 -0.975391 1 0.5 0 1
54 1 51.7179 32.1476 0 51.7179 32.1476 0 -371.375 -103.356 270.5 -41.3532 -0.424222 0.905558 1 0.5 0 1
55 1 15.6022 41.2639 0 94.8682 120.53 0 -44.7492 -1123.62 139.213 27.9781 -0.470964 -0.882152 1 0.5 0 1
56 1 36.8401 47.9313 0 36.8401 47.9313 0 -729.991 371.367 -0.490626 87.6269 0.455407 0.890283 1 0.5 0 1
57 1 72.6552 74.7252 0 -6.61078 74.7252 0 335.607 -362.855 -88.8131 97.7538 -0.656992 -0.753898 1 0.5 0 1
58 1 65.4355 29.6326 0 -13.8305 29.6326 0 -368.586 -41.4909 150.542 76.1175 -0.732789 -0.680456 1 0.5 0 1
59 1 51.2422 36.4698 0 51.2422 36.4698 0 -26.4728 -361.338 -133.067 -127.455 0.990446 -0.137905 1 0.5 0 1
60 1 55.8385 43.2038 0 55.8385 43.2038 0 258.096 306.566 -119.248 4.65795 0.222934 -0.974834 1 0.5 0 1
61 1 58.3931 46.82 0 58.3931 46.82 0 -151.26 -439.328 103.017 -93.418 -0.737865 -0.674949 1 0.5 0 1
62 1 62.0689 76.2541 0 141.335 -3.0119 0 -174.261 -70.5917 67.1405 -74.109 0.671405 -0.74109 1 0.5 0 1
63 1 36.2428 66.7683 0 -43.0232 -12.4977 0 -78.0095 37.1164 71.2748 70.1421 0.712748 0.701421 1 0.5 0 1
64 1 15.9033 32.3839 0 95.1693 111.65 0 593.909 -118.757 116.955 -187.983 -0.575588 0.81774 1 0.5 0 1
65 1 42.6923 32.6389 0 201.224 111.905 0 227.791 -113.253 -56.8573 -21.0027 0.998555 -0.0537398 1 0.5 0 1
66 1 15.8402 46.1184 0 95.1062 125.384 0 -131.723 447.86 152.249 40.5495 0.934414 -0.356189 1 0.5 0 1
67 1 53.6815 45.3999 0 53.6815 45.3999 0 -232.811 -1075.33 128.745 60.4074 -0.208454 -0.978032 1 0.5 0 1
68 1 12.9142 41.5884 0 12.9142 41.5884 0 909.64 -236.18 -17.7585 -279.472 0.935137 0.354286 1 0.5 0 1
69 1 55.2138 22.297 0 55.2138 22.297 0 -837.495 737.544 20.9715 -193.971 0.216006 0.976392 1 0.5 0 1
70 1 47.7199 39.9527 0 47.7199 119.219 0 -98.9805 599.866 111.991 -26.8001 0.94052 -0.339739 1 0.5 0 1
71 1 60.4462 15.6862 0 139.712 15.6862 0 -1024.21 -287.292 75.3278 -117.819 0.99036 0.138514 1 0.5 0 1
72 1 8.50916 59.9856 0 8.50916 59.9856 0 -326.961 -148.418 -42.8726 -68.5293 0.64476 -0.764385 1 0.5 0 1
73 1 2.96724 14.5868 0 2.96724 14.5868 0 -702.857 -269.186 72.885 22.9192 0.298569 -0.954388 1 0.5 0 1
74 1 56.3871 12.0268 0 56.3871 91.2928 0 210.487 -304.343 17.4841 -75.2934 -0.183535 -0.983013 1 0.5 0 1
75 1 75.5543 39.3682 0 -3.71169 39.3682 0 329.978 -115.052 20.6283 303.345 0.119311 -0.992857 1 0.5 0 1
76 1 20.1103 44.744 0 -59.1557 44.744 0 -415.776 -497.102 -50.8694 -44.3959 -0.252774 0.967525 1 0.5 0 1
77 1 77.1083 35.3698 0 -2.15772 35.3698 0 71.8797 -67.1269 0.723379 21.0978 0.966723 -0.255827 1 0.5 0 1
78 1 61.2911 71.7984 0 61.2911 71.7984 0 -516.733 -362.05 181.228 -10.5809 -0.9719 -0.235393 1 0.5 0 1
79 1 44.8417 56.6104 0 -34.4243 56.6104 0 309.752 99.3695 -30.1884 19.6298 0.820833 0.571168 1 0.5 0 1
80 1 77.5366 27.2112 0 -1.72935 -52.0548 0 -96.9008 577.943 3.25257 -53.9796 0.146332 -0.989235 1 0.5 0 1
81 1 46.8537 37.057 0 126.12 37.057 0 -253.513 -37.7078 -38.6457 -133.235 0.943781 0.330571 1 0.5 0 1
82 1 0.866506 39.8714 0 0.866506 39.8714 0 263.68 815.757 -160.575 -38.8257 0.999384 -0.0350877 1 0.5 0 1
83 1 43.0275 42.5028 0 122.294 121.769 0 319.622 122.84 -5.96559 45.3499 -0.235641 0.97184 1 0.5 0 1
84 1 76.8802 45.3413 0 -2.38576 45.3413 0 -137.507 9.9379 -38.4727 -40.5646 0.425088 0.905152 1 0.5 0 1
85 1 59.0969 70.2582 0 -20.1691 -9.00784 0 -319.594 -190.652 91.8761 50.2582 0.595543 0.803324 1 0.5 0 1
86 1 7.75472 43.0005 0 7.75472 43.0005 0 325.938 -168.357 -275.295 109.807 -0.189668 -0.981848 1 0.5 0 1
87 1 7.31987 44.7462 0 7.31987 44.7462 0 -877.552 -179.523 233.407 75.2332 0.737518 0.675327 1 0.5 0 1
88 1 21.1152 45.0606 0 21.1152 45.0606 0 775.99 97.6285 4.01965 22.9953 -0.530634 0.847601 1 0.5 0 1
89 1 22.9913 54.6956 0 22.9913 -24.5704 0 299.116 104.666 76.4426 -129.36 -0.96974 -0.244141 1 0.5 0 1
90 1 4.07707 39.1754 0 4.07707 39.1754 0 368.279 687.264 -113.365 104.54 -0.133921 0.990992 1 0.5 0 1
91 1 31.2056 74.5853 0 31.2056 -4.68071 0 8.25419 -146.983 -6.85844 99.7645 -0.0685844 0.997645 1 0.5 0 1
92 1 7.93021 56.9187 0 7.93021 56.9187 0 -42.5536 571.377 113.963 70.2615 0.992488 0.122338 1 0.5 0 1
93 1 1.94876 48.6933 0 1.94876 48.6933 0 379.263 409.093 -118.292 -54.3061 -0.332017 0.943273 1 0.5 0 1
94 1 69.6908 37.9241 0 69.6908 37.9241 0 770.705 545.125 128.719 110.214 0.691242 -0.722624 1 0.5 0 1
95 1 66.653 50.9218 0 66.653 50.9218 0 160.198 485.972 93.3572 -93.2793 0.999306 -0.0372378 1 0.5 0 1
96 1 53.5109 44.3918 0 53.5109 44.3918 0 -75.709 -392.833 -142.4 -27.1537 0.955518 0.294933 1 0.5 0 1
97 1 33.1887 68.1354 0 33.1887 -90.3966 0 206.22 377.359 -51.429 48.2614 -0.85424 0.519878 1 0.5 0 1
98 1 18.4567 54.7498 0 18.4567 54.7498 0 -447.421 -312.794 -60.916 22.516 -0.315702 0.948858 1 0.5 0 1
99 1 44.709 41.9873 0 44.709 -37.2787 0 590.543 -672.107 221.82 70.2928 0.632923 0.774215 1 0.5 0 1
100 1 72.2943 44.9545 0 72.2943 44.9545 0 493.633 -463.171 29.3017 227.968 0.778469 -0.627683 1 0.5 0 1
101 1 50.0516 51.0421 0 50.0516 -28.2239 0 284.547 132.784 6.20539 69.2061 0.927348 0.3742 1 0.5 0 1
102 1 78.296 43.9213 0 -0.969979 43.9213 0 -83.8631 -61.0793 -38.0553 -20.161 -0.939752 -0.341858 1 0.5 0 1
103 1 37.8897 39.0771 0 -120.642 118.343 0 170.834 -137.169 78.1837 64.979 0.934846 -0.355055 1 0.5 0 1
104 1 52.9586 46.1407 0 52.9586 125.407 0 434.958 577.064 160.842 -85.2417 -0.0688568 0.997627 1 0.5 0 1
105 1 41.8124 35.6736 0 41.8124 35.6736 0 -613.423 -544.232 132.749 67.9583 0.717001 0.697072 1 0.5 0 1
106 1 16.8383 35.7608 0 16.8383 -43.5052 0 529.303 -570.843 -84.9923 -8.94841 -0.982828 0.184523 1 0.5 0 1
107 1 61.0199 39.1342 0 61.0199 39.1342 0 638.702 489.964 -88.1026 18.104 -0.201342 -0.979521 1 0.5 0 1
108 1 78.6676 37.57 0 -0.59836 116.836 0 -195.292 1210.44 -110.565 29.7557 0.99497 -0.100175 1 0.5 0 1
109 1 39.4801 43.5297 0 -39.7859 122.796 0 -83.7979 -33.5928 12.7297 -53.3042 0.877129 -0.480255 1 0.5 0 1
110 1 49.3402 33.1961 0 49.3402 33.1961 0 -565.937 863.665 33.7295 28.3242 -0.359333 0.933209 1 0.5 0 1
111 1 72.0178 15.2196 0 72.0178 94.4856 0 170.234 630.887 -2.08944 29.1196 -0.862864 0.505436 1 0.5 0 1
112 1 12.5216 51.1092 0 12.5216 51.1092 0 149.314 -775.009 -56.603 81.5565 0.302856 0.953036 1 0.5 0 1
113 1 7.0624 5.82489 0 -72.2036 85.0909 0 -188.867 28.7384 -40.6584 -87.7937 -0.442547 -0.896745 1 0.5 0 1
114 1 54.2371 58.0833 0 54.2371 58.0833 0 -239.11 -766.228 -124.108 -82.6477 0.926304 0.376777 1 0.5 0 1
115 1 42.7263 48.0276 0 42.7263 -31.2384 0 719.829 22.8956 99.1863 -49.1856 0.455548 0.890211 1 0.5 0 1
116 1 61.727 69.9579 0 61.727 -88.5741 0 -389.334 -123.16 63.2739 -3.85734 0.765082 -0.643933 1 0.5 0 1
117 1 67.8398 70.1907 0 67.8398 -9.07528 0 313.879 496.257 97.7377 52.7545 0.143668 0.989626 1 0.5 0 1
118 1 54.2103 43.6672 0 54.2103 43.6672 0 141.43 -227.07 -103.728 -136.587 0.66224 -0.749291 1 0.5 0 1
119 1 51.033 64.3155 0 209.565 -14.9505 0 -452.175 833.952 -61.3339 -17.2673 0.751263 -0.660004 1 0.5 0 1
120 1 45.376 54.0133 0 124.642 -25.2527 0 -863.1 -241.166 -43.4153 -166.44 -0.998911 -0.0466512 1 0.5 0 1
121 1 62.2795 72.0911 0 -96.2525 -7.17495 0 565.205 -842.856 -96.3048 201.478 0.537178 -0.843469 1 0.5 0 1
122 1 39.5067 69.4235 0 39.5067 69.4235 0 207.148 -392.77 -28.2411 -95.9293 -0.282411 -0.959293 1 0.5 0 1
123 1 72.6492 32.399 0 -6.61677 32.399 0 499.176 -22.9276 162.678 -44.6241 0.969178 0.246363 1 0.5 0 1
124 1 4.18934 7.95547 0 -75.0767 -71.3105 0 -237.51 -537.363 -66.5548 -71.7065 -0.739618 -0.673027 1 0.5 0 1
125 1 63.7596 30.1218 0 63.7596 30.1218 0 -14.391 -783.5 -66.8503 -132.296 -0.867471 -0.497488 1 0.5 0 1
126 1 7.76776 36.6352 0 87.0338 115.901 0 136.426 -153.887 -110.279 132.953 0.715534 0.698578 1 0.5 0 1
127 1 56.3614 32.5453 0 56.3614 111.811 0 -41.2874 463.415 24.1912 -23.7862 0.886958 0.461851 1 0.5 0 1
128 1 0.694851 26.0592 0 -78.5711 26.0592 0 -388.203 -175.51 13.7745 -139.005 -0.293768 -0.955877 1 0.5 0 1
129 1 68.999 58.6267 0 68.999 -20.6393 0 522.679 543.617 -86.0797 219.017 0.391456 0.920197 1 0.5 0 1
130 1 74.3244 55.3296 0 74.3244 -23.9364 0 -453.5 -228.286 -30.9448 146.082 -0.9962 -0.0870961 1 0.5 0 1
131 1 2.35208 67.1826 0 2.35208 67.1826 0 -340.583 844.635 125.154 -250.69 -0.0437712 -0.999042 1 0.5 0 1
132 1 58.669 34.0794 0 -20.597 113.345 0 205.819 -75.5394 -100.547 -11.6554 0.947124 0.320868 1 0.5 0 1
133 1 15.6045 53.3993 0 15.6045 132.665 0 637.936 507.764 34.7963 -35.6692 0.366986 -0.930226 1 0.5 0 1
134 1 10.5589 40.0929 0 10.5589 40.0929 0 -61.8754 197.14 93.4433 40.7277 -0.748286 -0.663376 1 0.5 0 1
135 1 18.398 36.9886 0 18.398 195.521 0 3.81749 1045.09 88.2809 60.8432 -0.929491 0.368845 1 0.5 0 1
136 1 44.907 70.4445 0 124.173 228.977 0 -455.607 12.8608 56.3101 82.6388 0.563101 0.826388 1 0.5 0 1
137 1 39.7169 47.0392 0 118.983 47.0392 0 -809.455 -191.698 63.6355 -94.0467 0.735363 -0.677674 1 0.5 0 1
138 1 49.371 56.7143 0 -29.895 -22.5517 0 -628.664 -292.379 56.4959 21.4473 0.299733 0.954023 1 0.5 0 1
139 1 44.8305 45.7515 0 44.8305 -33.5145 0 -354.825 15.048 15.498 -20.5588 -0.785706 -0.6186 1 0.5 0 1
140 1 74.6722 11.1995 0 -4.59384 11.1995 0 -547.531 97.6769 -43.3208 46.563 -0.839376 0.543551 1 0.5 0 1
141 1 12.9574 59.9028 0 12.9574 59.9028 0 302.045 313.592 34.4311 -67.2713 0.935097 0.354391 1 0.5 0 1
142 1 18.2695 45.0005 0 -60.9965 124.266 0 287.928 -365.16 -1.71444 -64.4104 -0.997686 0.0679867 1 0.5 0 1
143 1 8.9839 37.9337 0 8.9839 117.2 0 382.345 202.775 -22.3817 2.67049 -0.677735 0.735306 1 0.5 0 1
144 1 61.9516 74.9746 0 61.9516 -4.29136 0 749.861 -423.429 -1.40634 -25.2326 0.903867 -0.427813 1 0.5 0 1
145 1 17.5658 65.2587 0 96.8318 65.2587 0 -54.0452 69.8174 67.5906 -74.2134 -0.719687 -0.694298 1 0.5 0 1
146 1 62.6393 64.5789 0 62.6393 -14.6871 0 -333.833 751.57 96.5831 -56.5616 0.996753 -0.0805254 1 0.5 0 1
147 1 2.01776 64.5935 0 81.2838 -14.6725 0 -365.486 896.261 76.7683 -267.712 -0.898579 0.438812 1 0.5 0 1
148 1 15.1887 18.1091 0 94.4547 97.3751 0 267.268 650.462 -55.4434 81.8691 -0.649023 0.760769 1 0.5 0 1
149 1 69.968 32.6712 0 69.968 111.937 0 -255.063 675.859 204.081 -213.64 -0.640568 0.767902 1 0.5 0 1
150 1 66.0995 37.9294 0 -13.1665 37.9294 0 236.513 63.9637 -70.9924 -108.791 0.302779 0.953061 1 0.5 0 1
151 1 5.77886 55.3089 0 85.0449 -23.9571 0 -661.072 -392.065 161.35 278.992 -0.60891 -0.79324 1 0.5 0 1
152 1 67.3019 68.1436 0 67.3019 68.1436 0 334.226 -162.6 10.303 -77.9268 -0.0790819 -0.996868 1 0.5 0 1
153 1 77.5541 58.2245 0 77.5541 58.2245 0 -192.35 133.572 -44.3307 -209.863 0.962036 -0.272923 1 0.5 0 1
154 1 5.43139 52.7635 0 5.43139 52.7635 0 455.748 690.902 28.7021 110.405 -0.521193 0.853439 1 0.5 0 1
155 1 71.7196 72.857 0 -86.8124 -6.40901 0 -375.52 289.688 39.4206 169.213 0.911765 0.410712 1 0.5 0 1
156 1 74.1837 49.1052 0 74.1837 49.1052 0 -310.059 -303.002 151.852 94.8167 -0.850953 0.525241 1 0.5 0 1
157 1 3.60254 30.5959 0 3.60254 30.5959 0 16.9072 -90.371 9.63193 -31.4644 0.800682 -0.599089 1 0.5 0 1
158 1 66.7439 40.8329 0 -12.5221 40.8329 0 -1394.62 -619.936 55.4926 181.109 0.197451 0.980313 1 0.5 0 1
159 1 4.49884 17.0968 0 4.49884 96.3628 0 347.367 -1016.74 55.7687 10.2672 -0.907514 -0.420021 1 0.5 0 1
160 1 70.5188 9.02998 0 70.5188 9.02998 0 -699.069 -163.839 65.8551 29.5791 0.737373 0.675485 1 0.5 0 1
161 1 78.9135 13.0813 0 -0.352463 -66.1847 0 -339.338 1083.9 -105.828 -126.733 0.183212 0.983073 1 0.5 0 1
162 1 9.39348 53.5757 0 9.39348 53.5757 0 38.0996 -1138.38 137.011 34.7745 -0.372912 -0.927867 1 0.5 0 1
163 1 63.2555 51.7998 0 63.2555 51.7998 0 -701.034 960.138 16.7594 47.1589 0.490252 -0.871581 1 0.5 0 1
164 1 60.425 65.8723 0 60.425 -13.3937 0 -443.262 695.337 242.569 -264.078 0.977525 -0.21082 1 0.5 0 1
165 1 55.6741 18.3019 0 55.6741 97.5679 0 712.978 -755.55 -68.6691 94.4961 0.896915 -0.442204 1 0.5 0 1
166 1 12.274 45.9407 0 12.274 45.9407 0 146.358 223.057 -51.2474 37.7787 0.963916 0.266208 1 0.5 0 1
167 1 63.0772 30.8224 0 63.0772 30.8224 0 375.352 -173.536 50.5292 -26.646 -0.641657 -0.766992 1 0.5 0 1
168 1 27.967 69.0067 0 -51.299 69.0067 0 -237.544 286.553 95.195 30.6254 0.95195 0.306254 1 0.5 0 1
169 1 24.9838 50.4556 0 -54.2822 129.722 0 274.193 -491.561 49.527 -111.07 0.228244 -0.973604 1 0.5 0 1
170 1 44.3191 23.8667 0 123.585 182.399 0 779.361 544.678 41.3701 61.7745 -0.79414 0.607735 1 0.5 0 1
171 1 64.6008 71.107 0 143.867 -8.15904 0 -22.6908 -49.6978 -36.8656 -118.421 0.353999 0.935246 1 0.5 0 1
172 1 11.2647 60.1345 0 11.2647 -19.1315 0 -15.9821 -394.792 -242.307 -53.5854 0.882975 -0.46942 1 0.5 0 1
173 1 54.9553 20.1668 0 54.9553 -59.0992 0 -365.308 441.47 77.8532 99.6491 0.278549 0.960422 1 0.5 0 1
174 1 13.0679 54.231 0 13.0679 54.231 0 262.132 521.535 37.6604 74.9175 0.177099 0.984193 1 0.5 0 1
175 1 76.1025 8.67039 0 -3.16351 8.67039 0 -899.429 -537.156 95.6269 -29.2489 0.956269 -0.292489 1 0.5 0 1
176 1 12.7342 52.1361 0 12.7342 52.1361 0 -471.112 -417.753 -38.616 -19.6055 0.956305 -0.292371 1 0.5 0 1
177 1 21.298 67.2147 0 21.298 67.2147 0 -756.777 -86.1181 44.0996 -89.7509 0.440996 -0.897509 1 0.5 0 1
178 1 55.8285 30.5922 0 -23.4375 109.858 0 438.75 -212.296 -86.9688 122.278 -0.925307 -0.37922 1 0.5 0 1
179 1 7.96939 61.7379 0 7.96939 -17.5281 0 -65.2392 391.039 -63.2391 -10.834 0.454887 0.890549 1 0.5 0 1
180 1 73.523 42.5323 0 73.523 42.5323 0 -528.372 16.4696 31.2113 -53.2938 0.428647 -0.903472 1 0.5 0 1
181 1 36.6707 2.2459 0 115.937 2.2459 0 -35.7633 186.509 97.9388 -20.1989 0.979388 -0.201989 1 0.5 0 1
182 1 5.99651 66.728 0 -73.2695 66.728 0 217.241 381.325 -27.8224 -160.423 0.520718 -0.853729 1 0.5 0 1
183 1 58.5714 61.0622 0 58.5714 -18.2038 0 506.833 -219.168 33.9037 39.8318 -0.874412 -0.485184 1 0.5 0 1
184 1 63.1972 44.4206 0 63.1972 44.4206 0 -314.705 -260.667 -35.8383 -227.684 0.465937 -0.884818 1 0.5 0 1
185 1 58.9148 16.9237 0 -20.3512 16.9237 0 -71.4141 277.137 -48.4972 166.923 0.158428 0.98737 1 0.5 0 1
186 1 17.5383 45.6901 0 -61.7277 124.956 0 286.703 -262.629 -81.636 85.5261 -0.486088 0.87391 1 0.5 0 1
187 1 54.8707 36.6032 0 -24.3953 115.869 0 -482.494 -193.41 119.392 -22.0259 0.698817 0.715301 1 0.5 0 1
188 1 63.4154 16.4796 0 142.681 95.7456 0 -1090.11 627.189 59.7472 -2.12242 0.783905 0.620881 1 0.5 0 1
189 1 42.4676 26.0806 0 42.4676 105.347 0 273.308 613.06 96.6883 -25.5219 0.966883 -0.255219 1 0.5 0 1
190 1 26.9273 51.9722 0 -52.3387 51.9722 0 1443.82 115.299 -49.9434 -58.168 0.871766 -0.489923 1 0.5 0 1
191 1 22.0307 66.0036 0 180.563 -13.2624 0 -336.43 -696.134 60.251 -79.8112 0.60251 -0.798112 1 0.5 0 1
192 1 58.3375 39.3553 0 58.3375 39.3553 0 -678.556 275.858 38.1024 -130.8 -0.845349 -0.534215 1 0.5 0 1
193 1 75.4714 14.192 0 -3.79461 93.458 0 171.827 -426.296 53.419 3.6968 0.103712 0.994607 1 0.5 0 1
194 1 17.3342 71.0587 0 17.3342 -87.4733 0 -77.9555 -3.77588 15.1544 -98.845 0.151544 -0.98845 1 0.5 0 1
195 1 52.7296 32.4223 0 52.7296 32.4223 0 963.076 134.363 -44.5634 -84.7551 0.969775 -0.243999 1 0.5 0 1
196 1 58.4279 43.0904 0 58.4279 43.0904 0 97.2382 -414.443 -6.89112 -11.1265 0.34854 0.937294 1 0.5 0 1
197 1 72.6722 62.1469 0 -6.59381 62.1469 0 60.0096 442.079 -168.329 33.5042 0.994991 0.0999625 1 0.5 0 1
198 1 73.4922 46.2131 0 73.4922 46.2131 0 -234.613 577.317 -43.7929 -114.393 -0.825508 0.56439 1 0.5 0 1
199 1 68.1402 74.0156 0 -11.1258 -5.2504 0 364.013 231.109 -113.753 -22.5525 -0.608774 -0.793344 1 0.5 0 1
200 1 0.136583 17.8071 0 79.4026 97.0731 0 316.131 -426.294 -72.5269 -46.4152 -0.443299 0.896374 1 0.5 0 1
201 1 69.1991 11.5427 0 -10.0669 90.8087 0 513.308 689.835 212.115 20.1972 -0.392751 0.919645 1 0.5 0 1
202 1 56.4265 63.4451 0 -22.8395 -15.8209 0 -285.887 100.188 30.8277 -13.5449 0.898806 0.438347 1 0.5 0 1
203 1 16.8671 42.5722 0 -62.3989 121.838 0 -324.207 209.051 -143.657 -92.4333 -0.569039 -0.82231 1 0.5 0 1
204 1 66.5516 65.1702 0 66.5516 -14.0958 0 -1034.18 300.778 207.843 -232.173 0.83011 -0.5576 1 0.5 0 1
205 1 46.7919 25.8781 0 46.7919 105.144 0 -674.698 -509.673 -55.5185 -31.4434 0.60361 0.797279 1 0.5 0 1
206 1 6.07367 5.30778 0 6.07367 5.30778 0 63.5367 -295.894 -26.3763 63.3874 -0.312996 0.949754 1 0.5 0 1
207 1 63.068 65.6077 0 63.068 65.6077 0 290.272 1058.76 85.8401 -64.0494 0.736787 0.676125 1 0.5 0 1
208 1 8.05392 33.9593 0 8.05392 33.9593 0 -82.9414 42.1876 -161.078 121.996 0.611747 0.791054 1 0.5 0 1
209 1 52.6736 28.7501 0 52.6736 108.016 0 -395.435 204.257 47.6419 20.3396 0.810424 -0.585844 1 0.5 0 1
210 1 67.8662 63.7331 0 -11.3998 63.7331 0 -161.69 -327.413 -99.9488 -94.0285 0.963306 0.268405 1 0.5 0 1
211 1 60.5849 44.5885 0 60.5849 44.5885 0 436.541 -38.5703 81.4891 -307.648 0.988051 -0.154127 1 0.5 0 1
212 1 22.3367 50.5927 0 180.869 50.5927 0 -268.457 -167.656 105.178 4.39142 0.997454 0.0713131 1 0.5 0 1
213 1 71.9129 67.3557 0 71.9129 67.3557 0 417.808 281.763 71.4176 69.164 0.984346 -0.176247 1 0.5 0 1
214 1 45.9425 20.3641 0 45.9425 20.3641 0 576.283 163.36 41.1874 -62.4894 0.63122 -0.775603 1 0.5 0 1
215 1 54.959 64.919 0 54.959 -14.347 0 -423.566 -150.896 35.029 -74.8918 -0.999463 0.0327655 1 0.5 0 1
216 1 18.7588 50.0944 0 18.7588 129.36 0 1071.62 -55.9087 -43.4757 125.266 0.95577 0.294116 1 0.5 0 1
217 1 66.3098 76.9816 0 224.842 76.9816 0 -263.021 -90.5947 99.0631 13.6565 0.990631 0.136565 1 0.5 0 1
218 1 46.9144 52.7403 0 46.9144 52.7403 0 167.384 -323.689 118.101 189.01 -0.965272 -0.261249 1 0.5 0 1
219 1 53.1659 47.134 0 53.1659 47.134 0 -370.681 128.911 1.37025 29.2192 -0.616536 -0.787326 1 0.5 0 1
220 1 66.8941 69.8627 0 66.8941 -88.6693 0 643.542 -389.496 -36.4668 8.49454 -0.353871 -0.935294 1 0.5 0 1
221 1 33.7105 53.5827 0 -45.5555 132.849 0 -347.825 -66.914 -70.513 -17.0684 -0.924568 -0.381018 1 0.5 0 1
222 1 43.8965 29.6916 0 43.8965 29.6916 0 -126.355 -294.749 -119.071 32.8841 0.994505 0.104688 1 0.5 0 1
223 1 71.6213 38.4209 0 -7.64469 38.4209 0 92.2189 -137.705 71.0026 80.8261 0.32161 -0.946872 1 0.5 0 1
224 1 77.9354 59.0965 0 -1.33062 59.0965 0 -226.653 -553.174 62.4194 73.2112 -0.766775 -0.641915 1 0.5 0 1
225 1 3.79779 6.87302 0 83.0638 -72.393 0 -314.436 -357.803 -26.4405 -103.881 0.0733444 -0.997307 1 0.5 0 1
226 1 9.13666 12.1605 0 -70.1293 -67.1055 0 -188.817 291.222 -84.9837 -52.7045 -0.849837 -0.527045 1 0.5 0 1
227 1 1.29756 38.1556 0 80.5636 38.1556 0 -466.75 726.842 -100.71 -108.216 0.0118078 -0.99993 1 0.5 0 1
228 1 18.3925 63.626 0 -60.8735 -15.64 0 -558.738 -248.665 161.003 146.989 -0.713763 -0.700387 1 0.5 0 1
229 1 51.2669 42.8149 0 51.2669 42.8149 0 -0.610464 37.7214 191.984 -133.308 -0.323539 -0.946215 1 0.5 0 1
230 1 51.6562 41.1366 0 51.6562 120.403 0 -162.77 -245.183 103.524 55.2292 -0.501974 0.864883 1 0.5 0 1
231 1 3.19997 25.0029 0 3.19997 104.269 0 -469.871 -113.184 46.2423 20.3975 0.0138428 0.999904 1 0.5 0 1
232 1 47.299 28.9601 0 47.299 -50.3059 0 -532.516 -854.28 264.757 37.238 0.319351 0.947636 1 0.5 0 1
233 1 10.3156 45.4097 0 10.3156 45.4097 0 434.542 576.426 104.673 -2.37638 0.537197 -0.843457 1 0.5 0 1
234 1 53.3077 78.8925 0 53.3077 -0.373523 0 568.655 -348.505 -60.4158 -73.5839 -0.196412 -0.980522 1 0.5 0 1
235 1 31.0184 1.10703 0 31.0184 159.639 0 -353.028 403.326 58.0204 81.4471 0.580204 0.814471 1 0.5 0 1
236 1 13.2756 11.4117 0 171.808 11.4117 0 -454.89 -261.872 76.788 64.0594 0.76788 0.640594 1 0.5 0 1
237 1 77.0649 73.1999 0 77.0649 -6.06608 0 262.434 344.017 9.58404 -174.676 0.931414 -0.363962 1 0.5 0 1
238 1 67.1283 22.9433 0 67.1283 102.209 0 -680.128 -26.8923 54.0658 291.197 0.543655 0.839309 1 0.5 0 1
239 1 2.61109 44.1997 0 81.8771 44.1997 0 429.479 -510.437 102.088 175.034 -0.597373 -0.801964 1 0.5 0 1
240 1 70.2878 18.3672 0 70.2878 18.3672 0 682.125 -510.799 -143.343 80.1246 0.98353 -0.180746 1 0.5 0 1
241 1 47.4508 38.9756 0 47.4508 38.9756 0 968.086 -356.238 2.44106 15.1739 0.979226 0.202772 1 0.5 0 1
242 1 9.8239 66.2429 0 89.0899 -13.0231 0 433.901 561.091 186.962 -101.745 0.96477 0.263094 1 0.5 0 1
243 1 20.6521 78.2665 0 -137.88 78.2665 0 -56.4231 463.36 -58.5525 81.0654 -0.585525 0.810654 1 0.5 0 1
244 1 59.0394 26.1469 0 59.0394 105.413 0 -35.8514 -620.197 -156.423 -35.1611 -0.505413 -0.862878 1 0.5 0 1
245 1 56.7672 53.9517 0 56.7672 53.9517 0 208.209 -372.629 42.0668 -13.5984 -0.887298 -0.461197 1 0.5 0 1
246 1 48.8746 43.9567 0 48.8746 43.9567 0 -122.381 428.732 66.1524 -129.12 0.563404 -0.826181 1 0.5 0 1
247 1 68.0852 55.7542 0 68.0852 -23.5118 0 654.057 264.014 126.072 -63.3038 0.444683 -0.895688 1 0.5 0 1
248 1 6.69906 71.7256 0 6.69906 -7.54044 0 90.108 -355.929 84.7681 -67.5746 0.436049 -0.899923 1 0.5 0 1
249 1 41.514 46.7209 0 120.78 -32.5451 0 597.316 231.148 -146.139 -39.163 0.0728103 0.997346 1 0.5 0 1
250 1 60.4071 68.6636 0 218.939 68.6636 0 -167.936 -284.102 1.41733 101.695 -0.998123 -0.0612356 1 0.5 0 1
251 1 61.7383 17.0118 0 61.7383 175.544 0 -381.117 180.444 59.3201 -69.0125 0.408562 0.91273 1 0.5 0 1
252 1 58.2505 23.2442 0 58.2505 102.51 0 439.459 -772.879 -224.179 -95.385 -0.980011 -0.198943 1 0.5 0 1
253 1 18.297 53.7505 0 18.297 53.7505 0 854.262 -745.837 55.6478 -108.307 -0.282469 -0.959276 1 0.5 0 1
254 1 46.5758 36.0876 0 46.5758 115.354 0 -244.869 88.1862 -60.9322 0.57975 0.815512 0.57874 1 0.5 0 1
255 1 0.438503 35.1217 0 79.7045 114.388 0 -1147.47 163.093 31.1319 -97.8564 0.990435 0.137978 1 0.5 0 1
256 1 68.4172 44.0819 0 -10.8488 44.0819 0 266.646 -532.229 68.1625 28.4933 0.799899 0.600135 1 0.5 0 1
257 1 6.18784 40.8033 0 6.18784 120.069 0 -862.444 695.183 90.5517 -187.335 -0.871245 0.490849 1 0.5 0 1
258 1 5.83627 28.6531 0 5.83627 -50.6129 0 -17.4685 -776.76 -63.2097 76.4327 -0.759752 0.650213 1 0.5 0 1
259 1 13.7262 67.5342 0 13.7262 -11.7318 0 0.134749 -0.861914 -45.0333 22.5483 0.235697 -0.971827 1 0.5 0 1
260 1 74.3804 72.1385 0 153.646 -7.12749 0 62.3181 -32.2294 168.045 49.2557 0.383683 0.923465 1 0.5 0 1
261 1 7.21293 16.4365 0 7.21293 16.4365 0 -176.089 49.917 55.8801 -4.18444 -0.968776 0.247938 1 0.5 0 1
262 1 56.6569 64.4514 0 135.923 -14.8146 0 -52.6565 313.336 101.845 -121.825 -0.953485 -0.301441 1 0.5 0 1
263 1 3.35874 67.2826 0 -75.9073 -91.2494 0 -424.076 686.656 84.3435 -113.852 0.988529 -0.151028 1 0.5 0 1
264 1 16.1754 33.3574 0 174.707 -45.9086 0 123.054 -496.493 218.367 54.62 -0.999022 0.0442154 1 0.5 0 1
265 1 51.5093 31.1603 0 51.5093 110.426 0 -543.724 -15.3377 -52.8201 -141.086 0.384485 0.923131 1 0.5 0 1
266 1 56.3525 55.7847 0 56.3525 55.7847 0 787.123 790.626 -19.826 -73.207 0.803992 0.59464 1 0.5 0 1
267 1 73.3418 64.0114 0 -5.92417 -15.2546 0 3.51714 -288.788 -65.6526 -145.881 -0.812191 -0.583391 1 0.5 0 1
268 1 68.2311 62.0121 0 68.2311 62.0121 0 507.727 -545.651 -85.9827 104.345 0.813574 0.581462 1 0.5 0 1
269 1 60.3603 71.5406 0 139.626 71.5406 0 476.796 846.903 -297.45 -277.318 0.663467 -0.748205 1 0.5 0 1
270 1 6.44736 69.2416 0 6.44736 -10.0244 0 425.187 -219.443 -0.126628 16.4536 -0.899899 -0.436098 1 0.5 0 1
271 1 66.2128 10.7469 0 145.479 10.7469 0 683.88 675.393 85.5672 -5.09324 0.999943 -0.010662 1 0.5 0 1
272 1 50.7021 40.858 0 50.7021 40.858 0 375.676 1260.59 -99.2066 21.2104 0.938927 0.344117 1 0.5 0 1
273 1 60 52.909 0 60 52.909 0 -327.657 250.94 136.587 57.8833 -0.856973 -0.515361 1 0.5 0 1
274 1 21.4614 47.2826 0 100.727 47.2826 0 508.967 168.666 -117.256 2.28197 -0.0360349 0.999351 1 0.5 0 1
275 1 10.8074 66.5425 0 90.0734 -12.7235 0 -88.29 354.687 -44.3271 56.5101 0.0358684 -0.999357 1 0.5 0 1
276 1 57.709 47.5951 0 57.709 47.5951 0 -39.2471 102.882 -52.9241 -74.859 0.605035 0.796199 1 0.5 0 1
277 1 59.4467 68.3359 0 59.4467 -10.9301 0 240.048 676.943 -25.8213 15.6498 0.730236 -0.683195 1 0.5 0 1
278 1 9.02012 34.2673 0 -70.2459 113.533 0 -108.358 -316.976 2.51666 112.902 0.999907 0.0136435 1 0.5 0 1
279 1 16.1008 43.3307 0 95.3668 -115.201 0 43.1441 76.1159 43.5654 88.6743 -0.511395 0.859346 1 0.5 0 1
280 1 9.42072 69.0336 0 -69.8453 -89.4984 0 413.018 -236.759 -38.9797 2.82051 0.607863 -0.794042 1 0.5 0 1
281 1 69.6727 57.9239 0 69.6727 57.9239 0 -58.8268 -169.095 102.816 -148.633 -0.690808 0.723038 1 0.5 0 1
282 1 48.4022 51.4098 0 48.4022 -27.8562 0 8.9292 -826.758 70.6001 37.1564 0.950363 0.311143 1 0.5 0 1
283 1 68.3449 33.1092 0 -10.9211 112.375 0 266.583 747.204 -116.72 -43.4898 -0.0210915 -0.999778 1 0.5 0 1
284 1 4.5842 30.9446 0 4.5842 110.211 0 424.661 169.445 -22.6559 -113.096 0.238462 -0.971152 1 0.5 0 1
285 1 64.8735 36.6764 0 64.8735 36.6764 0 -1.10102 -463.186 -105.896 -22.6154 -0.890251 0.455471 1 0.5 0 1