ITEM: TIMESTEP
80000
ITEM: NUMBER OF ATOMS
4000
ITEM: BOX BOUNDS pp pp pp
0.0000000000000000e+00 7.9266000000000005e+01
0.0000000000000000e+00 7.9266000000000005e+01
-5.0000000000000000e-01 5.0000000000000000e-01
ITEM: ATOMS id type x y z xu yu zu vx vy fx fy mux muy mu radius omegaz mass
1 1 49.0528 62.0308 0 49.0528 62.0308 0 -182.994 -357.418 50.371 50.8927 0.0566844 0.998392 1 0.5 0 1
2 1 27.6142 69.5123 0 27.6142 -9.75373 0 -171.026 -395.912 15.9344 -87.1141 -0.673531 -0.739159 1 0.5 0 1
3 1 50.3166 0.995026 0 50.3166 0.995026 0 -398.089 -77.1999 30.3168 -80.0368 0.495732 -0.868476 1 0.5 0 1
4 1 57.8216 23.0829 0 57.8216 102.349 0 367.102 52.2367 45.0149 -73.1158 -0.200569 0.97968 1 0.5 0 1
5 1 48.3979 33.9158 0 48.3979 33.9158 0 -652.272 26.0056 86.55 -2.12557 -0.281294 -0.959622 1 0.5 0 1
6 1 29.4182 21.3627 0 29.4182 21.3627 0 787.688 -595.74 -96.2834 58.9704 -0.986967 -0.160926 1 0.5 0 1
7 1 66.7665 44.5104 0 66.7665 44.5104 0 58.2059 -283.074 -11.8169 0.966593 0.442002 0.897014 1 0.5 0 1
8 1 21.6195 75.7569 0 21.6195 -3.5091 0 254.035 -322.641 1.60227 27.5078 -0.0916579 -0.995791 1 0.5 0 1
9 1 34.6674 21.5306 0 34.6674 21.5306 0 111.091 115.681 86.8045 8.5247 0.722517 -0.691353 1 0.5 0 1
10 1 68.6842 63.9086 0 68.6842 63.9086 0 -653.876 -9.41179 -38.7616 69.4615 -0.559297 -0.828968 1 0.5 0 1
11 1 61.9362 51.2102 0 -17.3298 51.2102 0 362.661 -666.206 6.79775 29.0548 -0.992831 0.119529 1 0.5 0 1
12 1 59.6188 66.6343 0 59.6188 66.6343 0 -7.14783 -207.554 5.36695 -52.4037 0.984803 -0.173675 1 0.5 0 1
13 1 32.1483 56.5196 0 32.1483 56.5196 0 187.663 -499.453 85.4485 34.2227 0.12301 -0.992405 1 0.5 0 1
14 1 60.7009 50.4327 0 -18.5651 50.4327 0 209.335 534.775 -89.4979 26.4039 -0.849235 -0.528016 1 0.5 0 1
15 1 43.0044 60.3635 0 43.0044 60.3635 0 173.654 984.044 -74.4327 12.9809 -0.999266 0.0383195 1 0.5 0 1
16 1 61.2314 14.9269 0 -18.0346 14.9269 0 -19.8688 -1435.32 -32.4013 -69.4735 -0.873144 -0.487463 1 0.5 0 1
17 1 36.5699 47.0146 0 36.5699 47.0146 0 -123.444 354.204 86.9585 87.31 -0.675868 0.737023 1 0.5 0 1
18 1 37.0592 20.193 0 37.0592 20.193 0 -368.534 212.667 -46.2669 -30.7375 -0.880997 -0.473122 1 0.5 0 1
19 1 27.6972 53.188 0 27.6972 53.188 0 25.608 -689.742 -34.596 -92.1449 -0.339414 -0.940637 1 0.5 0 1
20 1 23.1395 59.0152 0 23.1395 59.0152 0 60.0525 -365.82 42.5274 -13.9458 0.428019 0.90377 1 0.5 0 1
21 1 51.5222 62.3396 0 51.5222 -16.9264 0 469.175 184.22 -97.8703 33.2177 -0.953532 0.301292 1 0.5 0 1
22 1 48.3338 26.3065 0 48.3338 26.3065 0 -167.22 -861.416 77.785 -39.2956 0.822999 -0.568043 1 0.5 0 1
23 1 26.5082 0.116448 0 26.5082 0.116448 0 811.859 -23.693 54.1891 -85.0973 0.294179 -0.95575 1 0.5 0 1
24 1 66.0001 66.4085 0 66.0001 -12.8575 0 1150.01 -513.419 -64.5415 70.7953 0.122662 -0.992449 1 0.5 0 1
25 1 75.2973 73.7679 0 -3.96872 -5.49812 0 453.749 -194.178 56.3873 29.2573 -0.502494 -0.864581 1 0.5 0 1
26 1 28.8494 63.7202 0 28.8494 -15.5458 0 144.35 -193.902 72.355 -35.5443 0.707259 -0.706954 1 0.5 0 1
27 1 42.8026 31.9909 0 42.8026 31.9909 0 -135.945 141.673 -13.1222 88.5991 -0.614163 0.789179 1 0.5 0 1
28 1 16.7911 53.2861 0 16.7911 53.2861 0 368.087 132.853 6.18002 90.7248 -0.578035 0.816012 1 0.5 0 1
29 1 77.1372 35.863 0 -2.12884 35.863 0 168.072 -36.4509 -36.1389 40.9708 -0.346062 0.938212 1 0.5 0 1
30 1 46.148 30.5521 0 46.148 109.818 0 85.0447 -209.432 -59.7028 -21.6337 0.731525 0.681814 1 0.5 0 1
31 1 24.4567 43.8064 0 24.4567 43.8064 0 65.0084 208.872 -55.301 -1.28761 -0.449871 -0.893094 1 0.5 0 1
32 1 27.5068 49.1948 0 27.5068 49.1948 0 15.5186 -38.4275 -42.4139 55.5464 -0.606219 0.795298 1 0.5 0 1
33 1 33.6162 54.571 0 33.6162 -24.695 0 408.449 205.729 -1.89085 39.6945 0.50293 -0.864327 1 0.5 0 1
34 1 78.1239 33.3982 0 78.1239 33.3982 0 481.649 95.5433 -82.7947 9.63561 0.980347 0.197279 1 0.5 0 1
35 1 9.21871 77.1687 0 9.21871 77.1687 0 -285.551 997.791 -21.4996 -32.8104 -0.973897 -0.226989 1 0.5 0 1
36 1 52.9133 11.5875 0 52.9133 11.5875 0 97.7591 -796.71 1.80115 -97.6056 -0.174692 -0.984623 1 0.5 0 1
37 1 71.9513 38.6627 0 71.9513 38.6627 0 236.373 194.657 133.797 -141.04 0.450938 0.892555 1 0.5 0 1
38 1 24.6348 42.7905 0 103.901 42.7905 0 -472.682 -784.359 -36.2483 18.5293 -0.128517 0.991707 1 0.5 0 1
39 1 18.2813 11.3879 0 18.2813 11.3879 0 -851.628 -685.694 4.19482 -54.3013 0.502227 -0.864736 1 0.5 0 1
40 1 68.8392 68.877 0 -10.4268 -10.389 0 662.167 -129.253 -99.0575 26.3773 -0.987402 0.158233 1 0.5 0 1
41 1 66.3571 50.7733 0 66.3571 50.7733 0 705.31 832.106 71.186 -70.2321 0.71186 -0.702321 1 0.5 0 1
42 1 5.66517 69.2269 0 5.66517 69.2269 0 907.035 494.834 -1.10659 2.28455 -0.657654 -0.75332 1 0.5 0 1
43 1 76.9334 61.2758 0 -2.3326 61.2758 0 166.084 724.926 -195.861 -118.231 -0.954278 -0.29892 1 0.5 0 1
44 1 68.6729 7.99725 0 68.6729 87.2633 0 418.611 -590.934 -48.6964 214.303 -0.636128 0.771584 1 0.5 0 1
45 1 16.3705 46.2517 0 16.3705 46.2517 0 23.7306 623.859 -31.8384 -74.3942 0.535854 -0.844311 1 0.5 0 1
46 1 14.1217 22.8633 0 14.1217 22.8633 0 -182.487 -1394.78 -84.5485 45.225 -0.782586 0.622543 1 0.5 0 1
47 1 8.33521 75.2761 0 8.33521 -3.98987 0 -94.1335 53.5071 27.8894 -48.0533 0.381589 -0.924332 1 0.5 0 1
48 1 42.0444 50.3518 0 42.0444 50.3518 0 -48.0773 -546.396 -98.0342 -19.7308 -0.980342 -0.197308 1 0.5 0 1
49 1 78.6734 14.713 0 78.6734 93.979 0 545.717 493.075 -68.6112 -61.8442 0.960527 0.278186 1 0.5 0 1
50 1 69.2782 27.4822 0 69.2782 27.4822 0 321.836 66.653 -25.9008 35.507 -0.261305 0.965256 1 0.5 0 1
51 1 7.1857 9.87555 0 7.1857 9.87555 0 27.9366 -428.637 -134.045 -9.8205 -0.999015 0.0443846 1 0.5 0 1
52 1 6.64849 12.5217 0 85.9145 12.5217 0 96.8579 -333.405 172.377 12.1642 0.978387 -0.206783 1 0.5 0 1
53 1 43.0262 76.0451 0 43.0262 76.0451 0 293.492 492.729 -15.7353 98.8016 -0.163207 0.986592 1 0.5 0 1
54 1 45.466 31.7467 0 45.466 31.7467 0 -161.56 294.572 105.641 46.566 0.854942 -0.518723 1 0.5 0 1
55 1 9.53887 5.53496 0 88.8049 84.801 0 -75.5324 -1032.09 10.8417 40.5791 1 -0.000640515 1 0.5 0 1
56 1 34.6797 45.2074 0 34.6797 45.2074 0 -119.328 229.507 -35.7325 56.5269 -0.786831 -0.617168 1 0.5 0 1
57 1 19.2003 71.0822 0 19.2003 71.0822 0 -662.944 -494.265 -132.359 66.5341 -0.999299 0.0374315 1 0.5 0 1
58 1 15.6371 16.7105 0 15.6371 16.7105 0 -219.558 426.456 -31.8456 43.8299 -0.984921 0.173007 1 0.5 0 1
59 1 65.358 14.0312 0 65.358 14.0312 0 -224.404 189.927 22.1888 53.8219 0.704647 0.709558 1 0.5 0 1
60 1 57.0959 38.5227 0 57.0959 38.5227 0 -666.217 -670.268 -44.8746 -13.5647 0.76877 -0.639526 1 0.5 0 1
61 1 60.7011 36.7768 0 60.7011 36.7768 0 247.629 -323.111 -35.1714 49.8652 0.977633 -0.210316 1 0.5 0 1
62 1 47.1922 15.7305 0 47.1922 15.7305 0 370.043 -311.794 -39.9331 -45.434 0.361985 -0.932184 1 0.5 0 1
63 1 63.9239 64.1457 0 -15.3421 64.1457 0 -42.5656 857.792 43.2912 -66.8587 -0.627305 -0.778773 1 0.5 0 1
64 1 59.1978 43.5815 0 59.1978 43.5815 0 445.653 -186.355 9.81991 19.7426 0.49605 0.868294 1 0.5 0 1
65 1 72.448 65.4321 0 72.448 65.4321 0 -230.585 37.72 56.0008 24.252 -0.378986 0.925402 1 0.5 0 1
66 1 63.499 65.0748 0 63.499 65.0748 0 -757.698 1040.21 63.4671 64.196 0.938504 0.345267 1 0.5 0 1
67 1 54.9957 26.3849 0 54.9957 26.3849 0 237.401 399.209 19.1375 -9.41103 0.831553 0.555445 1 0.5 0 1
68 1 45.4281 46.0331 0 45.4281 46.0331 0 -210.813 -713.087 40.4351 90.4613 0.510049 0.860145 1 0.5 0 1
69 1 30.4905 71.924 0 30.4905 71.924 0 -374.915 -86.833 -99.9669 2.57194 -0.999669 0.0257194 1 0.5 0 1
70 1 20.9945 1.71672 0 20.9945 80.9827 0 -592.837 -31.0173 67.6292 -44.2395 0.479575 0.877501 1 0.5 0 1
71 1 35.8917 47.9141 0 35.8917 47.9141 0 -607.39 -343.942 -68.873 27.4437 -0.926442 -0.376438 1 0.5 0 1
72 1 4.45009 71.4045 0 4.45009 71.4045 0 383.701 287.527 11.1117 25.8857 -0.967968 -0.251074 1 0.5 0 1
73 1 79.2256 22.062 0 79.2256 22.062 0 909.131 139.252 38.265 -27.4732 -0.0469381 -0.998898 1 0.5 0 1
74 1 66.3344 65.4372 0 66.3344 65.4372 0 341.092 -146.855 21.6686 -54.5869 0.9715 -0.237039 1 0.5 0 1
75 1 2.39606 35.9252 0 2.39606 35.9252 0 671.787 -29.4552 1.50694 38.1742 -0.86375 -0.503921 1 0.5 0 1
76 1 10.3072 27.3981 0 10.3072 27.3981 0 -38.2424 -748.355 -66.4177 14.3488 -0.994159 -0.107922 1 0.5 0 1
77 1 8.93712 15.0736 0 8.93712 15.0736 0 373.648 -104.343 -4.37111 99.9044 -0.0437111 0.999044 1 0.5 0 1
78 1 30.1285 43.5235 0 30.1285 43.5235 0 35.3463 -194.48 16.302 -11.6998 -0.900745 0.434349 1 0.5 0 1
79 1 37.0415 78.3038 0 37.0415 78.3038 0 225.987 -394.346 -63.0975 -24.6075 -0.97948 -0.20154 1 0.5 0 1
80 1 39.0487 42.2818 0 39.0487 -36.9842 0 500.478 543.918 -62.5262 -65.283 -0.741189 -0.671297 1 0.5 0 1
81 1 19.5804 34.4081 0 98.8464 34.4081 0 4.3126 -252.249 -10.8628 24.5337 0.999657 -0.0262053 1 0.5 0 1
82 1 15.3254 31.0993 0 15.3254 31.0993 0 -745.497 97.3089 -200.167 -16.4937 -0.935988 0.352032 1 0.5 0 1
83 1 35.111 41.7885 0 35.111 41.7885 0 -171.551 -299.026 -50.0313 -74.5953 0.688954 0.724805 1 0.5 0 1
84 1 77.6725 42.6627 0 -1.59345 42.6627 0 -187.855 -623.382 123.683 -2.56789 -0.998842 -0.0481125 1 0.5 0 1
85 1 26.0682 69.8326 0 26.0682 -9.43337 0 251.712 69.9586 4.05821 -2.19479 -0.0840389 -0.996462 1 0.5 0 1
86 1 26.2772 1.22458 0 26.2772 1.22458 0 74.546 80.9293 -52.492 -72.1 -0.83916 -0.543885 1 0.5 0 1
87 1 50.5344 34.7509 0 50.5344 34.7509 0 -856.138 -154.772 -64.0508 -64.4272 0.0898762 0.995953 1 0.5 0 1
88 1 56.0332 26.2529 0 56.0332 26.2529 0 339.028 539.959 -176.173 32.7262 -0.541689 0.840579 1 0.5 0 1
89 1 20.7057 63.4564 0 20.7057 63.4564 0 -170.468 -879.272 -66.8819 72.5715 0.067529 0.997717 1 0.5 0 1
90 1 26.9709 41.0104 0 26.9709 41.0104 0 294.225 145.14 -51.4887 98.4217 -0.417347 -0.908747 1 0.5 0 1
91 1 5.06905 62.4699 0 5.06905 -16.7961 0 -250.524 -714.331 -83.6318 -107.976 -0.385675 -0.922635 1 0.5 0 1
92 1 18.7307 50.4242 0 18.7307 50.4242 0 280.035 -625.717 -96.8292 -23.2477 -0.99769 -0.0679355 1 0.5 0 1
93 1 2.54161 47.4002 0 2.54161 47.4002 0 203.89 111.007 -54.4712 -77.4699 -0.296308 -0.955092 1 0.5 0 1
94 1 0.0952449 31.213 0 79.3612 31.213 0 -448.496 -428.486 -14.3473 -21.0293 -0.33704 0.94149 1 0.5 0 1
95 1 67.0332 43.5449 0 67.0332 43.5449 0 120.089 -1007.21 261.483 221.981 0.934123 0.356952 1 0.5 0 1
96 1 56.9666 37.4679 0 56.9666 37.4679 0 -33.4598 886.631 -47.0961 86.7285 0.659159 -0.752004 1 0.5 0 1
97 1 66.507 29.064 0 66.507 29.064 0 -472.578 -1263.87 66.4905 60.5838 -0.753957 -0.656923 1 0.5 0 1
98 1 64.3385 72.7422 0 -14.9275 72.7422 0 345.17 284.172 -88.2483 111.775 -0.275354 0.961343 1 0.5 0 1
99 1 51.8422 20.8164 0 51.8422 20.8164 0 203.103 -63.6772 -30.3117 -59.9871 -0.640995 -0.767545 1 0.5 0 1
100 1 74.4844 40.3542 0 74.4844 40.3542 0 -492.323 776.817 -15.481 125.834 0.151582 -0.988445 1 0.5 0 1
101 1 42.0194 35.031 0 42.0194 35.031 0 -129.246 -153.62 26.6328 -96.3883 0.266328 -0.963883 1 0.5 0 1
102 1 1.96165 39.6704 0 1.96165 39.6704 0 -530.377 -246.546 125.057 -31.9025 -0.913052 0.407842 1 0.5 0 1
103 1 21.7094 57.5109 0 21.7094 57.5109 0 -291.249 525.949 2.95161 125.556 -0.680757 0.73251 1 0.5 0 1
104 1 53.7423 25.5002 0 53.7423 104.766 0 152.167 45.0249 61.237 79.0572 0.61237 0.790572 1 0.5 0 1
105 1 61.6899 77.0141 0 -17.5761 -2.25186 0 38.9456 299.461 -19.6427 -65.614 0.0215553 -0.999768 1 0.5 0 1
106 1 35.5952 44.6834 0 35.5952 44.6834 0 -1093.5 321.055 -35.3979 -40.551 -0.999233 -0.0391548 1 0.5 0 1
107 1 65.7338 31.6993 0 65.7338 31.6993 0 418.01 -623.325 16.7456 63.6515 -0.427989 0.903784 1 0.5 0 1
108 1 1.83396 15.9316 0 1.83396 95.1976 0 138.047 338.274 32.5762 25.1777 0.572384 0.819986 1 0.5 0 1
109 1 77.354 60.3302 0 -1.91198 60.3302 0 -724.25 483.57 -12.3568 -28.7082 -0.605353 0.795957 1 0.5 0 1
110 1 8.27049 38.5148 0 8.27049 38.5148 0 -296.023 56.1232 -6.57452 -65.1312 0.205262 0.978707 1 0.5 0 1
111 1 7.00369 27.3107 0 7.00369 27.3107 0 -320.455 332.711 89.021 18.8593 0.998619 0.0525408 1 0.5 0 1
112 1 30.1145 40.8145 0 30.1145 40.8145 0 -48.865 -502.956 0.267761 49.5463 -0.589389 -0.80785 1 0.5 0 1
113 1 61.2108 70.4737 0 -18.0552 -8.79231 0 -508.56 -67.2716 -83.9626 69.859 -0.992228 0.124437 1 0.5 0 1
114 1 9.52268 36.2994 0 9.52268 36.2994 0 -1271.36 -931.732 26.9791 96.5805 0.0620034 0.998076 1 0.5 0 1
115 1 76.1773 67.8403 0 -3.08869 -11.4257 0 -588.203 194.378 -126.421 -54.1984 -0.901895 0.431955 1 0.5 0 1
116 1 20.3988 9.21568 0 20.3988 9.21568 0 -739.19 -796.606 25.1579 -7.47326 0.504116 -0.863636 1 0.5 0 1
117 1 66.8339 57.4243 0 66.8339 57.4243 0 196.5 -360.335 -20.2924 22.2426 0.345311 0.938488 1 0.5 0 1
118 1 59.6566 37.834 0 59.6566 37.834 0 -178.574 210.42 102.282 -60.5861 0.169434 -0.985542 1 0.5 0 1
119 1 7.70076 11.367 0 7.70076 11.367 0 328.173 488.17 34.6136 71.7274 0.0942006 0.995553 1 0.5 0 1
120 1 68.5196 24.5773 0 68.5196 24.5773 0 480.905 -781.72 48.3561 53.5196 0.953629 0.300984 1 0.5 0 1
121 1 57.7144 25.0934 0 -21.5516 25.0934 0 -33.2066 -1186.36 -49.5313 113.73 -0.966413 0.256995 1 0.5 0 1
122 1 35.418 52.6042 0 35.418 52.6042 0 -117.689 317.55 29.0803 20.7262 -0.789966 0.613151 1 0.5 0 1
123 1 17.482 27.9218 0 17.482 27.9218 0 -78.8607 411.33 -77.9897 98.1676 -0.965376 0.260862 1 0.5 0 1
124 1 54.9755 10.1523 0 54.9755 10.1523 0 -321.644 183.086 -40.8237 3.70383 -0.830954 0.55634 1 0.5 0 1
125 1 48.0388 16.7997 0 48.0388 16.7997 0 -605.64 -688.328 63.3842 -39.974 0.965555 -0.2602 1 0.5 0 1
126 1 69.9791 66.6428 0 69.9791 66.6428 0 -498.807 -466.449 21.7127 -68.1425 0.784816 0.619729 1 0.5 0 1
127 1 63.1614 11.9247 0 63.1614 91.1907 0 -764.838 536.727 30.1201 116.381 0.263686 0.964609 1 0.5 0 1
128 1 59.1372 49.3947 0 -20.1288 49.3947 0 -227.546 195.689 53.3402 -128.006 -0.990209 -0.139594 1 0.5 0 1
129 1 57.7484 62.7863 0 57.7484 -16.4797 0 152.822 347.554 55.4097 -48.1547 0.849517 -0.527561 1 0.5 0 1
130 1 61.6963 56.3344 0 61.6963 -22.9316 0 134.563 -249.747 3.09345 -89.0706 0.976859 -0.213882 1 0.5 0 1
131 1 1.26124 59.8005 0 1.26124 59.8005 0 73.4428 -68.9406 3.5819 -7.25858 -0.976264 0.216585 1 0.5 0 1
132 1 14.397 9.63147 0 14.397 88.8975 0 1226.1 28.7065 -85.4197 82.6652 -0.747021 0.6648 1 0.5 0 1
133 1 66.4107 15.4948 0 66.4107 94.7608 0 756.616 720.517 -98.2261 -26.4146 -0.367814 0.929899 1 0.5 0 1
134 1 63.1875 70.4913 0 63.1875 70.4913 0 -107.089 -397.006 -98.0356 -19.7238 -0.980356 -0.197238 1 0.5 0 1
135 1 68.7222 3.4779 0 68.7222 82.7439 0 -166.777 417.639 -90.0279 -23.6132 -0.984258 0.176736 1 0.5 0 1
136 1 23.9715 3.61122 0 23.9715 82.8772 0 135.508 -79.2415 88.5758 6.05605 0.891805 0.452419 1 0.5 0 1
137 1 19.5766 39.4857 0 98.8426 39.4857 0 869.471 -299.013 18.985 37.7411 0.920996 0.389571 1 0.5 0 1
138 1 49.4344 34.7202 0 49.4344 34.7202 0 -292.9 234.035 -74.1003 -30.6805 -0.993127 -0.11704 1 0.5 0 1
139 1 43.3954 72.7771 0 43.3954 -6.48892 0 -182.942 745.003 -32.2419 -95.4352 -0.674152 -0.738593 1 0.5 0 1
140 1 23.3746 0.759296 0 23.3746 0.759296 0 459.291 -596.381 64.7343 -113.725 -0.44644 -0.894813 1 0.5 0 1
141 1 30.4127 37.479 0 30.4127 37.479 0 511.495 -33.5928 -23.3557 -16.6508 -0.999864 0.0164879 1 0.5 0 1
142 1 29.4345 53.9922 0 29.4345 53.9922 0 -282.655 -660.643 -35.4462 45.1195 -0.485927 0.873999 1 0.5 0 1
143 1 32.2865 78.2899 0 32.2865 78.2899 0 -27.753 19.2733 87.2821 14.0543 0.356128 0.934437 1 0.5 0 1
144 1 53.8366 14.0399 0 53.8366 14.0399 0 -394.188 -284.682 22.631 -32.8127 -0.848913 -0.528533 1 0.5 0 1
145 1 69.3533 64.7088 0 69.3533 64.7088 0 -114.433 -58.501 46.4278 49.4326 -0.99508 0.0990716 1 0.5 0 1
146 1 20.5667 75.4543 0 20.5667 -3.81171 0 1.423 -801.527 33.7445 -1.54865 -0.274424 -0.961609 1 0.5 0 1
147 1 2.38264 18.6404 0 81.6486 18.6404 0 -147.447 -205.18 -17.8354 -71.2406 0.225444 -0.974256 1 0.5 0 1
148 1 2.44304 12.395 0 81.709 12.395 0 127.179 -686.763 55.5914 13.4204 0.499423 -0.866358 1 0.5 0 1
149 1 65.4429 16.3543 0 65.4429 95.6203 0 -53.9767 432.587 14.5335 -18.2115 0.903149 0.429328 1 0.5 0 1
150 1 76.657 26.5614 0 -2.60901 26.5614 0 -296.844 75.7985 9.94859 -4.63352 -0.501418 0.865205 1 0.5 0 1
151 1 0.430226 70.6385 0 79.6962 -8.62746 0 -455.351 -760.671 80.3898 -72.0606 0.358987 -0.933342 1 0.5 0 1
152 1 16.8343 20.3765 0 16.8343 99.6425 0 -532.541 258.595 2.6853 30.9074 0.881744 0.471728 1 0.5 0 1
153 1 68.2721 55.4807 0 68.2721 55.4807 0 460.712 -400.152 95.5144 -16.4008 0.999959 0.0090761 1 0.5 0 1
154 1 2.63118 49.5155 0 2.63118 49.5155 0 -194.207 -405.09 -83.136 -10.2583 -0.025925 -0.999664 1 0.5 0 1
155 1 57.3067 6.09496 0 -21.9593 6.09496 0 886.183 611.353 -102.351 -70.7521 -0.973419 0.229033 1 0.5 0 1
156 1 73.8087 45.3749 0 73.8087 45.3749 0 355.134 -5.36663 48.1886 49.352 0.775194 0.631724 1 0.5 0 1
157 1 71.5899 11.7891 0 -7.67614 11.7891 0 -939.635 -482.905 71.7665 43.5401 -0.851574 0.524235 1 0.5 0 1
158 1 70.7183 34.2805 0 -8.54766 34.2805 0 -102.423 128.566 -48.9447 93.1272 -0.644275 -0.764794 1 0.5 0 1
159 1 73.4255 57.1249 0 73.4255 57.1249 0 -224.561 -122.865 15.277 54.2185 0.197521 0.980299 1 0.5 0 1
160 1 21.5687 16.4272 0 21.5687 16.4272 0 12.144 -329.174 16.7413 -78.0651 -0.0277395 -0.999615 1 0.5 0 1
161 1 78.6156 29.7716 0 -0.650388 29.7716 0 506.956 693.385 -98.4986 -32.3417 0.213705 -0.976898 1 0.5 0 1
162 1 8.11497 50.4065 0 8.11497 50.4065 0 -376.072 -287.415 12.2504 57.2428 -0.442941 -0.896551 1 0.5 0 1
163 1 63.8232 42.4246 0 63.8232 42.4246 0 -273.639 -709.702 -101.052 -82.1626 0.962182 -0.272407 1 0.5 0 1
164 1 27.8923 59.8262 0 27.8923 59.8262 0 439.694 448.717 -100.19 0.974597 0.743426 -0.668818 1 0.5 0 1
165 1 43.026 29.2206 0 43.026 29.2206 0 123.066 571.46 35.0181 -79.134 0.252789 -0.967522 1 0.5 0 1
166 1 46.4491 25.0678 0 46.4491 25.0678 0 -316.841 -534.12 -49.1491 78.9011 -0.699545 0.714588 1 0.5 0 1
167 1 45.3059 25.7762 0 45.3059 25.7762 0 -203.618 1116.93 64.3533 -40.2637 0.678624 -0.734486 1 0.5 0 1
168 1 44.7562 69.9067 0 44.7562 69.9067 0 640.962 34.0693 -89.817 43.9648 -0.89817 0.439648 1 0.5 0 1
169 1 39.9028 72.1382 0 39.9028 72.1382 0 -790.71 -476.403 -3.03485 45.2611 -0.403968 0.914773 1 0.5 0 1
170 1 73.7808 62.1794 0 73.7808 62.1794 0 438.358 33.072 -85.517 -26.4759 -0.473154 0.88098 1 0.5 0 1
171 1 5.71681 48.6539 0 84.9828 48.6539 0 -92.5942 21.2333 8.23689 -39.2051 0.152649 -0.98828 1 0.5 0 1
172 1 29.5724 60.4314 0 29.5724 -18.8346 0 -606.382 -407.036 22.8954 16.9422 -0.266911 -0.963721 1 0.5 0 1
173 1 48.2521 32.0022 0 48.2521 32.0022 0 -54.1558 629.512 45.5128 -113.11 -0.538283 -0.842764 1 0.5 0 1
174 1 13.1538 41.501 0 13.1538 41.501 0 71.7428 -392.205 -41.7536 -41.7434 -0.81072 0.585434 1 0.5 0 1
175 1 15.1213 2.91945 0 15.1213 2.91945 0 -252.464 -364.378 115.329 -52.7682 0.912533 -0.409003 1 0.5 0 1
176 1 30.5 55.7636 0 30.5 55.7636 0 -291.983 502.217 81.7027 -25.1257 -0.993003 -0.118092 1 0.5 0 1
177 1 29.9077 73.3167 0 29.9077 73.3167 0 -93.8497 -430.99 31.4167 13.709 -0.646501 0.762913 1 0.5 0 1
178 1 68.188 15.4905 0 -11.078 94.7565 0 -655.794 21.7596 134.664 11.9344 -0.917064 0.398739 1 0.5 0 1
179 1 20.8646 61.6149 0 20.8646 -17.6511 0 87.2669 -29.638 -85.6617 13.6688 -0.673461 -0.739223 1 0.5 0 1
180 1 76.4575 38.5304 0 76.4575 38.5304 0 -684.3 168.025 35.0606 68.1709 0.362012 0.932173 1 0.5 0 1
181 1 58.7238 25.5373 0 58.7238 25.5373 0 -877.523 -210.066 95.5353 24.6069 0.393006 0.919536 1 0.5 0 1
182 1 39.367 30.7432 0 39.367 110.009 0 225.09 -515.104 67.7192 100.062 -0.575662 0.817688 1 0.5 0 1
183 1 31.6743 73.4863 0 31.6743 -5.77968 0 211.85 -661.072 3.61007 -99.9348 0.0361007 -0.999348 1 0.5 0 1
184 1 66.0027 36.3491 0 66.0027 36.3491 0 638.193 325.178 66.638 -73.8996 -0.447802 0.894133 1 0.5 0 1
185 1 57.1852 41.3612 0 57.1852 41.3612 0 552.716 -485.664 -4.80474 -71.4259 -0.744122 -0.668044 1 0.5 0 1
186 1 31.3868 47.3818 0 31.3868 47.3818 0 -77.023 -46.0879 -106.364 -109.286 -0.0397443 0.99921 1 0.5 0 1
187 1 73.125 9.24183 0 -6.14095 88.5078 0 26.0914 -823.632 -83.7394 50.0612 -0.876958 0.480567 1 0.5 0 1
188 1 71.3037 60.7738 0 71.3037 60.7738 0 536.782 981.982 40.3001 25.4189 -0.20386 -0.979 1 0.5 0 1
189 1 5.09535 12.9477 0 5.09535 12.9477 0 512.813 -448.714 38.0544 85.0863 0.667013 -0.745046 1 0.5 0 1
190 1 7.55171 62.0694 0 7.55171 62.0694 0 201.31 -350.142 -37.7568 -12.5621 -0.265335 0.964156 1 0.5 0 1
191 1 17.4337 76.1584 0 96.6997 -3.10763 0 -278.1 -12.7567 -15.89 56.7876 0.999843 -0.0176958 1 0.5 0 1
192 1 62.2145 30.8054 0 62.2145 30.8054 0 -142.636 391.036 119.364 21.1798 0.98782 0.1556 1 0.5 0 1
193 1 15.3015 7.05697 0 15.3015 7.05697 0 -209.739 272.759 -113.231 0.481012 -0.961801 -0.273749 1 0.5 0 1
194 1 52.3617 64.3294 0 52.3617 64.3294 0 -726.4 -137.33 -77.7466 -51.4913 -0.339678 0.940542 1 0.5 0 1
195 1 34.7113 27.098 0 34.7113 27.098 0 -301.92 440.924 82.7376 67.4593 0.998412 0.0563265 1 0.5 0 1
196 1 61.7409 33.4214 0 61.7409 33.4214 0 -466.905 -555.033 72.9651 -158.187 -0.387638 -0.921812 1 0.5 0 1
197 1 14.0947 62.0052 0 14.0947 62.0052 0 520.736 334.758 -41.6605 -92.9987 -0.683039 0.730382 1 0.5 0 1
198 1 75.1261 41.8924 0 75.1261 41.8924 0 348.272 788.765 -35.9532 27.2295 0.880803 -0.473484 1 0.5 0 1
199 1 13.7458 28.8721 0 13.7458 28.8721 0 88.8877 609.311 -74.8495 -35.1407 -0.837019 -0.547173 1 0.5 0 1
200 1 18.4463 61.2761 0 18.4463 61.2761 0 -232.112 -340.309 80.3322 48.5538 0.524289 0.85154 1 0.5 0 1
201 1 31.0224 54.8394 0 31.0224 -24.4266 0 -233.341 -359.29 -152.25 9.48837 -0.965115 -0.261825 1 0.5 0 1
202 1 57.5183 16.2442 0 -21.7477 16.2442 0 -230.635 -54.2361 75.838 128.587 -0.999641 0.0267958 1 0.5 0 1
203 1 15.7017 63.8889 0 15.7017 63.8889 0 -325.402 343.298 -40.881 -87.6197 -0.723904 0.6899 1 0.5 0 1
204 1 12.1275 25.0622 0 12.1275 25.0622 0 -270.213 -506.845 -76.1766 93.6929 -0.154897 0.987931 1 0.5 0 1
205 1 25.9097 60.0001 0 25.9097 60.0001 0 -52.5903 363.577 -135.252 -15.6152 -0.942691 0.333667 1 0.5 0 1
206 1 6.17137 75.6236 0 6.17137 -3.64241 0 311.509 241.941 -77.3688 -24.6212 -0.787427 -0.616407 1 0.5 0 1
207 1 20.7122 57.2414 0 20.7122 57.2414 0 752.472 -417.871 -111.876 49.7876 0.338114 0.941105 1 0.5 0 1
208 1 62.3289 61.5539 0 62.3289 61.5539 0 159.602 -317.169 -59.4626 -64.1272 -0.62698 -0.779035 1 0.5 0 1
209 1 54.722 29.1224 0 54.722 29.1224 0 -126.674 625.758 -44.7347 109.956 -0.696112 0.717933 1 0.5 0 1
210 1 15.4239 5.76226 0 15.4239 85.0283 0 306.803 1097.74 69.4989 0.712167 -0.971633 -0.236494 1 0.5 0 1
211 1 63.485 35.5882 0 63.485 35.5882 0 164.77 -542.475 -109.533 174.409 0.0951388 0.995464 1 0.5 0 1
212 1 7.24535 75.2452 0 86.5113 -4.02082 0 -686.137 199.59 39.9174 -22.5869 0.772308 0.635249 1 0.5 0 1
213 1 32.6724 60.2856 0 32.6724 60.2856 0 739.758 43.1124 65.5453 -90.5454 0.576212 -0.8173 1 0.5 0 1
214 1 49.51 7.53179 0 49.51 86.7978 0 -154.064 -880.363 -21.5857 29.3439 0.0813769 0.996683 1 0.5 0 1
215 1 13.4873 62.8434 0 13.4873 -16.4226 0 -404.624 220.607 25.2293 0.935173 0.92307 0.384632 1 0.5 0 1
216 1 22.4642 14.5189 0 22.4642 93.7849 0 212.043 349.896 64.3342 44.3535 0.764956 0.644083 1 0.5 0 1
217 1 46.7596 33.4124 0 46.7596 33.4124 0 -251.163 607.445 9.99418 -24.7644 -0.303422 -0.952856 1 0.5 0 1
218 1 25.7621 43.03 0 25.7621 43.03 0 -1115.02 -300.246 -118.042 -8.60697 0.953394 0.301728 1 0.5 0 1
219 1 51.5718 40.756 0 51.5718 40.756 0 -113.547 386.8 -92.0507 5.3751 0.059542 -0.998226 1 0.5 0 1
220 1 64.1337 5.37373 0 64.1337 5.37373 0 245.766 418.881 93.8733 -93.6656 0.914011 -0.40569 1 0.5 0 1
221 1 43.6226 50.4278 0 43.6226 50.4278 0 -202.385 488.354 -104.656 -17.5517 -0.956091 0.29307 1 0.5 0 1
222 1 36.0022 69.3373 0 36.0022 -9.92871 0 -738.534 363.603 -10.5849 -99.4382 -0.105849 -0.994382 1 0.5 0 1
223 1 76.257 32.5015 0 -3.00905 32.5015 0 128.989 669.196 -55.059 52.4772 -0.419653 0.907685 1 0.5 0 1
224 1 70.9865 59.8208 0 -8.27947 59.8208 0 789.751 3.96196 -164.115 -27.9078 -0.544569 0.838716 1 0.5 0 1
225 1 77.1663 75.2885 0 77.1663 -3.97747 0 1092.03 -427.333 -50.9187 -2.91679 -0.0314644 -0.999505 1 0.5 0 1
226 1 45.4198 24.6996 0 45.4198 24.6996 0 -452.644 270.756 -7.86259 -51.5783 -0.606806 -0.79485 1 0.5 0 1
227 1 76.9755 16.0616 0 76.9755 16.0616 0 -626.977 -140.189 -45.7098 55.297 0.995789 0.091677 1 0.5 0 1
228 1 17.6626 75.1357 0 17.6626 75.1357 0 -580.951 354.288 -34.722 83.6715 -0.981906 -0.18937 1 0.5 0 1
229 1 60.1181 27.9545 0 60.1181 27.9545 0 272.108 -305.315 41.3006 97.8901 0.83162 0.555344 1 0.5 0 1
230 1 62.4384 25.3204 0 62.4384 104.586 0 -147.889 -81.3801 196.208 -141.23 -0.620184 0.784456 1 0.5 0 1
231 1 48.4661 57.4256 0 48.4661 57.4256 0 311.433 -85.9978 88.3226 -23.0168 0.956128 0.292949 1 0.5 0 1
232 1 34.2344 59.2216 0 34.2344 -20.0444 0 911.681 381.498 -29.6106 -150.753 0.889492 -0.456951 1 0.5 0 1
233 1 32.0697 38.5979 0 32.0697 38.5979 0 -753.387 473.574 -71.9257 7.76927 -0.999988 0.00484671 1 0.5 0 1
234 1 33.9324 70.7604 0 33.9324 -8.50555 0 8.08983 -618.982 20.2636 -2.14505 -0.93802 0.34658 1 0.5 0 1
235 1 22.3589 67.1301 0 22.3589 67.1301 0 479.928 191.603 177.564 -121.112 -0.818969 0.573838 1 0.5 0 1
236 1 68.9348 66.8434 0 68.9348 66.8434 0 464.692 -314.747 -61.8443 -94.3595 0.999648 0.0265243 1 0.5 0 1
237 1 41.6133 30.7026 0 41.6133 30.7026 0 395.488 -229.306 96.3188 -30.0585 0.999838 -0.018014 1 0.5 0 1
238 1 47.5018 45.6142 0 47.5018 45.6142 0 611.296 186.337 -38.6533 62.9645 -0.807409 0.589992 1 0.5 0 1
239 1 8.60295 31.2834 0 87.869 31.2834 0 -175.688 258.596 -147.042 86.2688 0.155347 0.98786 1 0.5 0 1
240 1 17.2855 36.408 0 17.2855 36.408 0 -620.745 645.187 102.371 -53.7672 0.889283 -0.457358 1 0.5 0 1
241 1 49.009 64.9002 0 49.009 64.9002 0 -548.283 470.604 -29.9664 -91.7426 -0.66534 -0.74654 1 0.5 0 1
242 1 66.7568 67.1804 0 66.7568 -12.0856 0 593.539 1050.05 -51.3452 15.4089 0.467351 -0.884072 1 0.5 0 1
243 1 4.26541 66.2923 0 4.26541 66.2923 0 806.183 -473.263 -40.6951 -31.3669 -0.996326 -0.0856387 1 0.5 0 1
244 1 47.5155 40.7608 0 47.5155 40.7608 0 380.303 -106.568 -84.1674 52.6261 -0.869826 0.493359 1 0.5 0 1
245 1 52.0766 36.0047 0 52.0766 36.0047 0 817.44 205.687 -40.0128 -76.8733 0.794272 0.607562 1 0.5 0 1
246 1 25.3227 34.4526 0 25.3227 34.4526 0 722.129 -768.614 -56.3468 76.7468 0.965365 -0.260903 1 0.5 0 1
247 1 62.3086 58.2822 0 62.3086 -20.9838 0 -618.001 -85.6989 102.815 46.0158 0.596213 -0.802826 1 0.5 0 1
248 1 64.8464 8.4009 0 -14.4196 87.6669 0 -150.888 353.566 35.1543 -47.2014 -0.809105 0.587663 1 0.5 0 1
249 1 52.8249 18.3596 0 52.8249 18.3596 0 241.848 -250.715 -32.6541 -8.94153 0.924888 0.380239 1 0.5 0 1
250 1 18.3073 37.6459 0 97.5733 37.6459 0 -82.3802 293.997 36.8424 62.7402 0.533659 0.8457 1 0.5 0 1
251 1 40.6519 21.2852 0 40.6519 100.551 0 -82.1435 240.015 63.8332 76.9761 0.638332 0.769761 1 0.5 0 1
252 1 20.9663 66.0362 0 20.9663 66.0362 0 411.816 48.3654 32.2454 47.3301 0.244718 0.969594 1 0.5 0 1
253 1 16.4666 48.0004 0 16.4666 48.0004 0 611.381 478.393 -76.207 68.9528 -0.1506 0.988595 1 0.5 0 1
254 1 43.6919 59.5335 0 43.6919 59.5335 0 -265.092 -477.188 13.0941 50.7982 -0.178906 0.983866 1 0.5 0 1
255 1 9.28162 13.8435 0 88.5476 93.1095 0 -57.2555 1223.58 44.5171 63.1326 0.592938 0.805248 1 0.5 0 1
256 1 71.1196 38.0019 0 -8.1464 38.0019 0 -477.233 -760.976 213.327 206.263 -0.954778 -0.29732 1 0.5 0 1
257 1 24.6479 15.0894 0 24.6479 94.3554 0 30.7337 -465.729 -18.622 98.2508 -0.18622 0.982508 1 0.5 0 1
258 1 29.5877 15.148 0 29.5877 15.148 0 -534.124 -11.1472 62.6646 -77.9304 0.626646 -0.779304 1 0.5 0 1
259 1 9.2095 17.3104 0 88.4755 17.3104 0 339.691 352.64 49.1517 -29.7393 -0.0304564 0.999536 1 0.5 0 1
260 1 5.16821 44.4182 0 84.4342 44.4182 0 39.6408 41.2168 14.5196 -16.9813 0.772595 -0.6349 1 0.5 0 1
261 1 11.0568 22.6842 0 11.0568 22.6842 0 211.386 196.048 7.90093 -35.9237 0.273226 -0.96195 1 0.5 0 1
262 1 28.9497 16.2352 0 108.216 16.2352 0 659.32 244.476 98.4514 18.5383 0.982015 0.188802 1 0.5 0 1
263 1 0.315547 0.190337 0 0.315547 0.190337 0 -254.429 -363.435 -96.5689 13.3093 -0.986516 -0.163663 1 0.5 0 1
264 1 13.0966 25.4636 0 92.3626 25.4636 0 96.9853 509.226 -54.8396 7.81332 0.938522 0.345218 1 0.5 0 1
265 1 14.5527 1.27232 0 14.5527 80.5383 0 -85.0183 -30.8912 -89.6574 -7.01417 0.459216 0.888325 1 0.5 0 1
266 1 48.6323 54.7351 0 48.6323 54.7351 0 495.31 1381.52 88.9427 -45.7077 0.889427 -0.457077 1 0.5 0 1
267 1 16.8566 8.96719 0 16.8566 8.96719 0 125.223 605.499 34.9433 -34.4866 -0.376835 -0.926281 1 0.5 0 1
268 1 73.3977 75.3476 0 73.3977 75.3476 0 146.388 211.706 43.7373 -89.928 0.437373 -0.89928 1 0.5 0 1
269 1 36.0613 19.7976 0 115.327 19.7976 0 607.036 -163.272 93.4267 -112.705 0.442938 -0.896552 1 0.5 0 1
270 1 14.2739 13.7479 0 93.5399 13.7479 0 -490.41 209.301 60.0361 18.516 0.881036 -0.473049 1 0.5 0 1
271 1 33.6296 49.694 0 33.6296 49.694 0 56.3381 103.554 100.859 -125.803 0.229049 -0.973415 1 0.5 0 1
272 1 59.9696 26.975 0 59.9696 26.975 0 312.947 98.4093 -75.6007 -51.1376 0.85117 0.524889 1 0.5 0 1
273 1 50.1724 43.6854 0 50.1724 43.6854 0 623.708 40.9858 5.10482 94.4163 0.977723 -0.209897 1 0.5 0 1
274 1 34.4261 74.2253 0 34.4261 -5.04067 0 319.953 452.218 7.46562 -82.7705 0.0985834 -0.995129 1 0.5 0 1
275 1 41.2609 73.0159 0 41.2609 -6.2501 0 -354.838 -535.11 141.673 14.4514 0.984537 -0.175179 1 0.5 0 1
276 1 57.6194 40.0542 0 57.6194 40.0542 0 -56.803 -136.912 79.6755 60.7586 0.779134 0.626857 1 0.5 0 1
277 1 57.982 45.1702 0 -21.284 45.1702 0 213.867 -299.487 -10.0436 -68.1666 -0.788299 -0.615293 1 0.5 0 1
278 1 10.9005 61.2821 0 10.9005 61.2821 0 180.791 736.47 -78.9681 11.2689 0.0758077 0.997122 1 0.5 0 1
279 1 0.840268 28.3955 0 80.1063 28.3955 0 -116.331 -157.858 87.678 6.21003 0.983398 0.181461 1 0.5 0 1
280 1 67.1373 74.6178 0 67.1373 -4.64816 0 -332.945 -329.042 15.8462 -97.5751 0.123759 -0.992312 1 0.5 0 1
281 1 56.1441 48.4724 0 56.1441 48.4724 0 -710.616 -201.948 -72.9255 18.976 0.595677 0.803224 1 0.5 0 1
282 1 34.5509 10.5311 0 34.5509 10.5311 0 211.373 -411.241 -13.4221 -99.0951 -0.134221 -0.990951 1 0.5 0 1
283 1 5.73678 6.68302 0 5.73678 85.949 0 -565.188 -228.071 -8.81108 -17.5244 -0.20789 0.978152 1 0.5 0 1
284 1 76.418 0.976015 0 -2.84804 80.242 0 -14.9861 -231.707 -81.4404 37.2887 -0.77484 0.632158 1 0.5 0 1
285 1 72.1749 31.5531 0 72.1749 31.5531 0 72.4739 -352.496 -94.5667 153.194 -0.136 -0.990709 1 0.5 0 1