ITEM: TIMESTEP
260000
ITEM: NUMBER OF ATOMS
4000
ITEM: BOX BOUNDS pp pp pp
0.0000000000000000e+00 7.9266000000000005e+01
0.0000000000000000e+00 7.9266000000000005e+01
-5.0000000000000000e-01 5.0000000000000000e-01
ITEM: ATOMS id type x y z xu yu zu vx vy fx fy mux muy mu radius omegaz mass
1 1 0.966524 63.5248 0 80.2325 63.5248 0 -2.83456 400.603 -17.0168 215.366 -0.972636 0.232335 1 0.5 0 1
2 1 37.9721 71.1571 0 37.9721 -8.10886 0 -873.45 -892.898 134.784 -22.2248 0.293058 0.956095 1 0.5 0 1
3 1 15.0123 34.9398 0 15.0123 -44.3262 0 356.577 157.83 -75.389 -174.023 -0.912838 0.408322 1 0.5 0 1
4 1 38.3233 64.5115 0 38.3233 64.5115 0 -190.403 935.271 32.5753 -135.885 -0.392346 -0.919818 1 0.5 0 1
5 1 3.28548 30.0039 0 3.28548 30.0039 0 654.873 -1217.61 -38.3353 56.8515 -0.979368 0.202087 1 0.5 0 1
6 1 70.3861 28.0937 0 -8.87994 28.0937 0 -415.846 -4.79786 -50.3542 -95.3423 -0.973439 0.228947 1 0.5 0 1
7 1 67.5903 48.2685 0 67.5903 48.2685 0 -557.343 -16.6491 167.148 -45.9747 0.97751 -0.210887 1 0.5 0 1
8 1 17.5919 38.9121 0 17.5919 -40.3539 0 -77.8237 146.854 -75.6328 -256.52 -0.263473 -0.964667 1 0.5 0 1
9 1 69.7915 25.2363 0 69.7915 25.2363 0 -112.884 420.085 144.158 -21.7466 -0.0403164 -0.999187 1 0.5 0 1
10 1 17.2855 48.7891 0 17.2855 48.7891 0 826.334 193.994 -34.853 -14.6963 -0.984657 0.174499 1 0.5 0 1
11 1 39.6362 72.3344 0 -39.6298 -6.93162 0 790.984 167.028 124.939 53.6972 -0.999437 0.0335466 1 0.5 0 1
12 1 1.29377 20.9779 0 80.5598 100.244 0 434.115 -375.496 -135.098 -25.7972 -0.640773 0.76773 1 0.5 0 1
13 1 69.3749 79.1074 0 69.3749 -0.158561 0 248.631 301.921 81.2777 -58.2575 0.812777 -0.582575 1 0.5 0 1
14 1 51.1395 14.1473 0 -107.393 14.1473 0 -82.5009 204.257 -58.698 103.199 -0.646198 0.76317 1 0.5 0 1
15 1 10.8026 32.8209 0 10.8026 32.8209 0 -906.025 -336.174 17.7344 -122.262 -0.494529 0.869161 1 0.5 0 1
16 1 19.5192 46.7279 0 -59.7468 -32.5381 0 -378.564 -147.594 84.6872 10.3207 -0.684177 -0.729316 1 0.5 0 1
17 1 41.0874 30.6757 0 120.353 109.942 0 420.749 126.282 -138.665 17.7708 0.500747 0.865594 1 0.5 0 1
18 1 15.3846 52.7346 0 15.3846 52.7346 0 1111.15 261.401 -64.2639 -8.77045 0.829854 -0.55798 1 0.5 0 1
19 1 4.54605 39.6258 0 4.54605 39.6258 0 408.808 -104.298 -85.4018 158.779 0.998735 0.0502826 1 0.5 0 1
20 1 13.8898 54.868 0 13.8898 54.868 0 243.469 6.26161 -202.765 -23.6398 0.629167 -0.77727 1 0.5 0 1
21 1 5.19731 26.9602 0 5.19731 26.9602 0 556.732 389.283 -101.493 82.7987 -0.941154 0.337977 1 0.5 0 1
22 1 2.85241 19.873 0 82.1184 19.873 0 -4.09584 378.351 -18.151 -4.82207 -0.734901 -0.678175 1 0.5 0 1
23 1 13.8944 27.3706 0 93.1604 27.3706 0 656.166 67.9128 74.638 -68.6099 -0.649183 0.760632 1 0.5 0 1
24 1 66.3365 55.9047 0 66.3365 -23.3613 0 -99.6195 399.04 62.0539 -175.12 0.97625 0.216649 1 0.5 0 1
25 1 44.4671 33.1669 0 -34.7989 -46.0991 0 -786.507 2.66238 4.70469 22.0216 0.971117 -0.238605 1 0.5 0 1
26 1 53.875 67.1581 0 53.875 -91.3739 0 1017.07 -82.0309 -10.8143 -73.315 -0.069223 -0.997601 1 0.5 0 1
27 1 73.2246 13.9068 0 -6.04141 93.1728 0 442.249 655.561 56.5266 36.3681 -0.851649 0.524112 1 0.5 0 1
28 1 19.7848 76.5498 0 19.7848 76.5498 0 -685.659 -233.767 33.271 75.6813 0.37685 0.926274 1 0.5 0 1
29 1 74.6281 37.2461 0 -4.63791 37.2461 0 -493.682 280.519 -397.432 -183.592 0.375051 0.927004 1 0.5 0 1
30 1 62.2282 15.9081 0 62.2282 95.1741 0 -101.937 52.7522 40.1116 -49.2357 0.851936 0.523645 1 0.5 0 1
31 1 75.1518 24.9328 0 -4.11419 24.9328 0 -344.984 26.4118 95.6825 220.299 -0.998546 -0.0539036 1 0.5 0 1
32 1 10.8545 21.2438 0 10.8545 21.2438 0 -352.766 152.062 114.25 30.64 -0.99238 -0.123219 1 0.5 0 1
33 1 64.7747 57.1407 0 64.7747 -22.1253 0 558.126 -231.854 -37.9067 -128.147 0.972544 0.232718 1 0.5 0 1
34 1 6.16767 42.9076 0 85.4337 42.9076 0 -450.192 -360.431 -242.33 92.7291 -0.317202 0.948358 1 0.5 0 1
35 1 18.3904 58.4519 0 -60.8756 58.4519 0 -12.8973 -796.014 59.7401 31.9252 0.125517 -0.992091 1 0.5 0 1
36 1 60.2613 56.4406 0 60.2613 -22.8254 0 276.214 1018.72 -104.493 -98.3153 0.903101 0.429429 1 0.5 0 1
37 1 70.3078 41.2238 0 70.3078 41.2238 0 360.219 267.853 59.8476 -67.9116 0.200898 0.979612 1 0.5 0 1
38 1 53.9356 3.51695 0 133.202 82.7829 0 360.885 431.307 97.2126 23.4461 0.972126 0.234461 1 0.5 0 1
39 1 77.6975 74.8884 0 77.6975 -83.6436 0 135.826 -284.078 -32.5063 -16.2881 0.976891 -0.213737 1 0.5 0 1
40 1 18.8499 71.486 0 -60.4161 71.486 0 -377.748 316.899 46.2449 88.6646 0.462449 0.886646 1 0.5 0 1
41 1 69.087 51.4891 0 69.087 51.4891 0 652.708 228.384 78.1141 -30.7136 -0.165918 0.986139 1 0.5 0 1
42 1 74.38 58.3467 0 -4.88604 58.3467 0 -807.653 -790.701 145.777 -124.984 -0.50705 -0.861917 1 0.5 0 1
43 1 8.28592 14.4165 0 -70.9801 93.6825 0 -1181.77 -442.066 -99.6156 -8.75942 -0.996156 -0.0875942 1 0.5 0 1
44 1 65.877 20.1714 0 65.877 99.4374 0 386.852 -210.586 11.3032 168.412 -0.945471 -0.325707 1 0.5 0 1
45 1 41.24 57.819 0 41.24 -21.447 0 -417.992 -308.241 20.8707 -97.7978 0.208707 -0.977978 1 0.5 0 1
46 1 7.14159 39.7507 0 7.14159 39.7507 0 132.329 21.7066 71.6824 -1.17117 -0.376983 0.92622 1 0.5 0 1
47 1 58.095 59.4793 0 58.095 -19.7867 0 165.398 -900.386 278.144 11.5395 0.909301 -0.41614 1 0.5 0 1
48 1 11.8806 44.994 0 11.8806 44.994 0 -461.855 -766.498 -77.0553 5.45505 -0.759258 -0.65079 1 0.5 0 1
49 1 76.0474 9.77466 0 76.0474 89.0407 0 223.644 -102.855 -217.291 0.689506 -0.959815 0.280633 1 0.5 0 1
50 1 45.13 26.5258 0 45.13 26.5258 0 161.112 77.7 -80.1644 47.1732 -0.857213 0.514963 1 0.5 0 1
51 1 67.6634 5.58443 0 -11.6026 5.58443 0 -326.712 239.381 -93.3188 -36.2912 -0.9338 -0.357794 1 0.5 0 1
52 1 4.53085 31.328 0 83.7968 31.328 0 79.3043 227.478 104.722 86.615 -0.300434 0.953803 1 0.5 0 1
53 1 10.9916 53.7132 0 10.9916 132.979 0 74.6715 -99.3968 -1.65055 -86.3706 -0.993956 0.109783 1 0.5 0 1
54 1 54.4983 28.484 0 54.4983 28.484 0 -505.08 -389.398 -41.2392 -122.058 -0.974679 -0.223608 1 0.5 0 1
55 1 42.0307 30.3142 0 121.297 109.58 0 -542.169 -131.948 122.339 13.2508 -0.915202 0.402995 1 0.5 0 1
56 1 18.5502 46.4619 0 18.5502 46.4619 0 -413.087 -819.319 -62.7822 -1.96175 0.841351 0.54049 1 0.5 0 1
57 1 38.6899 15.7261 0 38.6899 94.9921 0 -158.444 438.541 71.5515 44.3442 -0.231195 0.972908 1 0.5 0 1
58 1 69.0302 25.8856 0 -10.2358 25.8856 0 -0.663779 25.8675 -39.1189 -35.3695 -0.869229 0.49441 1 0.5 0 1
59 1 53.4297 32.7654 0 53.4297 32.7654 0 200.027 793.577 -63.7695 -206.683 -0.915693 -0.401878 1 0.5 0 1
60 1 57.0966 39.7604 0 57.0966 39.7604 0 -683.89 -122.871 -107.558 -145.395 0.370505 -0.92883 1 0.5 0 1
61 1 59.6577 43.3272 0 59.6577 43.3272 0 193.401 -298.222 -225.115 -94.5769 0.369216 0.929344 1 0.5 0 1
62 1 44.2895 18.1559 0 123.556 18.1559 0 351.278 -335.589 97.9131 20.3231 0.979131 0.203231 1 0.5 0 1
63 1 12.1574 62.1305 0 -67.1086 -17.1355 0 168.012 -125.492 48.6389 13.7056 -0.192653 -0.981267 1 0.5 0 1
64 1 45.7455 29.7409 0 125.012 109.007 0 182.807 320.039 -19.9754 -6.24863 0.538814 0.842425 1 0.5 0 1
65 1 59.9163 14.0157 0 139.182 93.2817 0 -25.3831 212.821 -10.3889 -150.049 0.488375 -0.872634 1 0.5 0 1
66 1 15.4735 41.7285 0 94.7395 120.995 0 487.003 71.8119 86.1428 111.189 -0.77342 0.633894 1 0.5 0 1
67 1 54.9894 41.6804 0 54.9894 41.6804 0 775.384 813.601 -80.0326 -16.3227 0.2963 -0.955095 1 0.5 0 1
68 1 15.7495 38.9256 0 15.7495 38.9256 0 -379.982 -298.129 23.8034 -83.0346 -0.947167 -0.32074 1 0.5 0 1
69 1 20.3094 51.1048 0 20.3094 51.1048 0 -86.1801 20.6102 23.6572 25.0939 0.317469 -0.948269 1 0.5 0 1
70 1 49.7832 36.8796 0 49.7832 116.146 0 -86.7549 -403.601 31.9739 157.515 0.996837 0.0794743 1 0.5 0 1
71 1 74.643 11.2636 0 74.643 11.2636 0 -336.189 85.8205 51.4209 2.50098 0.134574 0.990904 1 0.5 0 1
72 1 3.40526 55.2096 0 3.40526 55.2096 0 650.615 612.709 -245.383 0.513182 -0.0112308 -0.999937 1 0.5 0 1
73 1 9.84102 23.5159 0 9.84102 23.5159 0 -61.6712 -385.864 -70.8673 -24.1982 -0.706222 -0.707991 1 0.5 0 1
74 1 64.1335 11.816 0 64.1335 91.082 0 27.7444 -666.108 -76.5739 19.5629 -0.947768 0.318959 1 0.5 0 1
75 1 76.0254 35.9281 0 -3.24059 35.9281 0 -271.32 351.308 110.62 -36.7605 0.15508 0.987902 1 0.5 0 1
76 1 49.198 27.4531 0 -30.068 27.4531 0 -245.774 -364.34 57.1935 -207.384 0.0613011 0.998119 1 0.5 0 1
77 1 78.6721 32.3337 0 -0.593925 32.3337 0 184.798 33.4964 -88.5467 -98.3444 0.845784 0.533526 1 0.5 0 1
78 1 37.8185 72.1981 0 37.8185 72.1981 0 516.472 -500.93 105.035 -175.413 0.992612 0.121333 1 0.5 0 1
79 1 0.111915 73.2927 0 0.111915 73.2927 0 -288.716 195.459 2.01425 52.2215 -0.522135 0.852863 1 0.5 0 1
80 1 1.21254 24.6937 0 1.21254 -54.5723 0 528.543 -550.337 -166.077 -85.4001 0.891244 0.453523 1 0.5 0 1
81 1 48.6373 34.3682 0 127.903 34.3682 0 -1026.86 103.461 67.9758 -37.7578 0.495335 -0.868702 1 0.5 0 1
82 1 1.31816 36.5264 0 1.31816 36.5264 0 -535.399 253.893 43.6938 -91.0619 0.343737 0.939066 1 0.5 0 1
83 1 36.9257 48.0796 0 116.192 127.346 0 -537.564 687.146 62.0897 15.0457 0.97438 0.224907 1 0.5 0 1
84 1 76.8248 43.2683 0 -2.44116 43.2683 0 549.207 30.0603 18.382 -224.692 -0.964054 0.265708 1 0.5 0 1
85 1 50.9752 62.9091 0 50.9752 -16.3569 0 -167.305 260.993 85.6279 51.6513 0.856279 0.516513 1 0.5 0 1
86 1 11.2157 38.4503 0 11.2157 38.4503 0 45.6868 -223.725 131.424 7.40498 -0.925285 0.379273 1 0.5 0 1
87 1 11.6817 40.4045 0 11.6817 40.4045 0 158.209 267.036 -264.312 250.327 -0.765866 0.643 1 0.5 0 1
88 1 35.0673 79.2281 0 35.0673 -0.037902 0 57.8158 -646.754 24.5289 45.2181 0.332632 -0.943057 1 0.5 0 1
89 1 40.2368 40.8755 0 40.2368 40.8755 0 274.575 -381.099 72.648 -4.85847 0.810657 -0.585521 1 0.5 0 1
90 1 4.5773 36.0332 0 4.5773 36.0332 0 -211.553 1079.55 -72.3973 -45.5093 -0.989185 -0.14667 1 0.5 0 1
91 1 16.2268 56.6354 0 16.2268 -22.6306 0 -167.502 371.733 5.46944 32.5813 0.164154 -0.986435 1 0.5 0 1
92 1 2.9003 52.2955 0 2.9003 52.2955 0 196.92 528.07 -9.27362 59.2848 -0.74887 0.662717 1 0.5 0 1
93 1 1.81439 43.0131 0 1.81439 43.0131 0 455.355 175.905 -107.06 -234.415 0.125048 0.992151 1 0.5 0 1
94 1 70.6001 35.1222 0 70.6001 35.1222 0 -840.568 295.901 -204.113 5.09313 0.969672 -0.244408 1 0.5 0 1
95 1 67.4295 47.3171 0 67.4295 47.3171 0 498.813 134.748 -175.849 -53.3378 0.638079 0.769971 1 0.5 0 1
96 1 54.7619 40.6923 0 54.7619 40.6923 0 97.1576 331.41 -69.4594 -84.8791 0.868871 -0.495039 1 0.5 0 1
97 1 37.7859 0.0888293 0 37.7859 0.0888293 0 -916.313 534.131 0.302726 -48.8359 -0.170232 -0.985404 1 0.5 0 1
98 1 44.2595 60.0744 0 44.2595 60.0744 0 42.2081 -339.065 -55.7208 -83.1569 -0.538159 -0.842843 1 0.5 0 1
99 1 44.2184 39.2757 0 44.2184 -39.9903 0 -482.868 -452.226 43.603 2.8585 0.880375 0.474279 1 0.5 0 1
100 1 73.0829 42.0552 0 73.0829 42.0552 0 -115.202 -453.911 26.4037 -20.3655 -0.8824 -0.4705 1 0.5 0 1
101 1 49.7929 46.1643 0 49.7929 -33.1017 0 115.952 -880.552 12.3145 0.544102 0.997043 0.0768426 1 0.5 0 1
102 1 78.7552 40.375 0 -0.510837 40.375 0 -104.916 -100.009 36.7147 53.808 -0.896452 0.443141 1 0.5 0 1
103 1 24.7569 47.8109 0 -54.5091 127.077 0 -33.013 -149.875 -3.75124 49.1524 -0.454358 0.890819 1 0.5 0 1
104 1 54.272 42.3279 0 54.272 121.594 0 250.473 -1014.01 -29.7867 200.482 0.381649 0.924307 1 0.5 0 1
105 1 68.0858 10.4005 0 -11.1802 10.4005 0 65.1228 -575.361 -15.6539 36.961 0.890062 0.455839 1 0.5 0 1
106 1 76.7258 73.038 0 -2.54019 -6.22803 0 145.307 -357.245 18.9402 71.9163 -0.613718 -0.789526 1 0.5 0 1
107 1 62.1916 35.9999 0 62.1916 35.9999 0 23.8994 700.04 116.914 -255.311 0.261825 -0.965115 1 0.5 0 1
108 1 79.1461 34.2416 0 -0.119943 113.508 0 258.23 264.637 -33.2809 62.8761 0.999856 -0.0169582 1 0.5 0 1
109 1 36.5232 70.3937 0 -42.7428 70.3937 0 182.126 265.869 -44.8522 23.3634 -0.493747 0.869606 1 0.5 0 1
110 1 50.083 31.0371 0 50.083 31.0371 0 69.0396 194.999 68.3715 45.7025 0.228863 0.973459 1 0.5 0 1
111 1 70.9856 10.1716 0 70.9856 89.4376 0 40.2942 -882.198 63.6383 40.534 0.463097 0.886308 1 0.5 0 1
112 1 10.6129 47.2163 0 10.6129 47.2163 0 -104.684 261.934 182.784 -273.653 0.212867 -0.977081 1 0.5 0 1
113 1 26.1122 77.5816 0 -53.1538 77.5816 0 -568.447 -628.751 58.849 80.8505 0.58849 0.808505 1 0.5 0 1
114 1 53.6761 52.9569 0 53.6761 52.9569 0 347.125 708.713 -26.8001 -130.73 0.491014 -0.871152 1 0.5 0 1
115 1 20.6465 77.2482 0 20.6465 -2.01781 0 86.7083 -289.913 83.607 -58.4836 0.76914 -0.63908 1 0.5 0 1
116 1 20.4233 42.3597 0 20.4233 -36.9063 0 419.756 -335.864 -53.8023 -16.1421 -0.813086 -0.582144 1 0.5 0 1
117 1 34.1285 22.1616 0 34.1285 22.1616 0 -224.945 261.2 103.044 18.4308 0.999829 0.0184718 1 0.5 0 1
118 1 55.4846 40.0535 0 55.4846 40.0535 0 -310.89 630.159 -154.17 -148.159 0.38364 -0.923483 1 0.5 0 1
119 1 28.4451 14.201 0 107.711 14.201 0 -82.3223 -803.667 66.2253 73.8136 0.684828 0.728704 1 0.5 0 1
120 1 45.9729 50.5085 0 125.239 -28.7575 0 -591.834 147.818 -80.7386 -41.4323 0.297928 -0.954588 1 0.5 0 1
121 1 58.3682 66.6167 0 -100.164 -12.6493 0 -140.023 -515.462 -91.1297 -41.1749 -0.911297 -0.411749 1 0.5 0 1
122 1 53.9575 20.6004 0 53.9575 99.8664 0 115.501 -140.465 -38.6274 -144.402 -0.890516 -0.454952 1 0.5 0 1
123 1 75.2528 29.4602 0 -4.01323 29.4602 0 -536.713 53.0053 73.774 10.8636 -0.983066 -0.18325 1 0.5 0 1
124 1 15.2886 22.35 0 15.2886 22.35 0 783.97 170.183 4.6937 -99.8898 0.046937 -0.998898 1 0.5 0 1
125 1 67.3268 26.1367 0 67.3268 26.1367 0 225.542 145.327 -131.886 125.332 0.515947 -0.85662 1 0.5 0 1
126 1 9.12506 33.2127 0 88.3911 112.479 0 51.4696 -916.154 -24.7303 281.963 0.108518 0.994094 1 0.5 0 1
127 1 59.0047 29.4051 0 59.0047 108.671 0 204.002 -85.5459 116.475 107.691 0.522772 0.852472 1 0.5 0 1
128 1 3.58026 23.5892 0 -75.6857 23.5892 0 -370.943 -761.629 38.0732 14.801 -0.689516 -0.72427 1 0.5 0 1
129 1 68.0642 55.626 0 68.0642 -23.64 0 146.332 -5.06883 -154.354 -58.3136 0.989473 -0.144714 1 0.5 0 1
130 1 73.8811 54.4714 0 73.8811 -24.7946 0 662.094 -471.065 -250.429 18.3323 -0.0848203 -0.996396 1 0.5 0 1
131 1 63.7626 12.9914 0 -15.5034 92.2574 0 781.791 451.796 -55.5553 -46.0096 0.894856 -0.446355 1 0.5 0 1
132 1 61.0403 31.0934 0 -18.2257 110.359 0 1154.54 -827.58 -71.7376 128.764 0.19353 0.981094 1 0.5 0 1
133 1 32.0088 53.0882 0 32.0088 132.354 0 -345.91 648.602 -66.3679 43.2937 -0.488075 0.872802 1 0.5 0 1
134 1 12.4314 36.0769 0 12.4314 36.0769 0 352.658 108.067 82.4862 -9.78651 -0.999865 -0.016402 1 0.5 0 1
135 1 13.9628 50.3696 0 13.9628 129.636 0 21.0862 -15.2678 -57.8454 43.7376 -0.336634 0.941636 1 0.5 0 1
136 1 46.6268 2.15877 0 46.6268 81.4248 0 691.202 1182.92 83.3743 -55.2153 0.833743 -0.552153 1 0.5 0 1
137 1 53.0051 24.5833 0 132.271 103.849 0 777.717 269.254 52.0501 -64.0958 -0.645676 -0.763611 1 0.5 0 1
138 1 47.947 51.2018 0 -31.319 -28.0642 0 -480.291 0.346085 24.6385 -60.2454 0.233288 -0.972408 1 0.5 0 1
139 1 43.7696 42.0341 0 43.7696 -37.2319 0 -578.772 885.498 53.0634 -149.413 0.975599 -0.21956 1 0.5 0 1
140 1 20.7855 4.60189 0 20.7855 4.60189 0 422.443 -325.229 -51.3247 50.0517 -0.993557 -0.113337 1 0.5 0 1
141 1 8.67264 55.5739 0 8.67264 55.5739 0 304.937 -637.729 9.32589 118.757 0.45002 0.893019 1 0.5 0 1
142 1 70.9931 2.40761 0 -8.27285 81.6736 0 -118.586 190.979 -99.7748 6.70724 -0.997748 0.0670724 1 0.5 0 1
143 1 11.0651 33.8097 0 11.0651 113.076 0 143.735 147.974 -87.5587 87.7643 0.217623 0.976033 1 0.5 0 1
144 1 22.2546 46.7201 0 22.2546 -32.5459 0 -101.434 459.756 -56.7716 -115.181 -0.91741 0.397944 1 0.5 0 1
145 1 0.334547 14.4746 0 79.6005 93.7406 0 784.136 -47.2159 27.6223 -58.2791 -0.614586 -0.78885 1 0.5 0 1
146 1 57.3892 60.2197 0 57.3892 -19.0463 0 -202.18 387.795 -87.8365 6.04093 0.845057 -0.534676 1 0.5 0 1
147 1 1.47921 66.5363 0 80.7452 -12.7297 0 -870.803 153.705 3.47549 -27.2868 0.0365826 -0.999331 1 0.5 0 1
148 1 46.7223 53.8264 0 125.988 53.8264 0 -124.372 -473.975 4.48463 -10.8456 0.959682 -0.281089 1 0.5 0 1
149 1 72.613 29.5969 0 72.613 108.863 0 -960.695 74.7029 188.792 -9.41574 -0.627696 -0.778459 1 0.5 0 1
150 1 67.7617 34.27 0 -11.5043 34.27 0 331.849 -579.691 -71.7629 101.254 -0.452708 0.891659 1 0.5 0 1
151 1 2.45092 54.8461 0 81.7169 -24.4199 0 49.6785 -0.421718 130.497 107.632 -0.361261 0.932465 1 0.5 0 1
152 1 45.7336 0.594231 0 45.7336 79.8602 0 36.3403 336.143 -50.6975 -119.734 0.620019 -0.784587 1 0.5 0 1
153 1 76.0912 58.1027 0 76.0912 58.1027 0 15.2011 -663.353 69.7698 -36.3804 0.00162346 -0.999999 1 0.5 0 1
154 1 2.67547 46.8419 0 2.67547 46.8419 0 277.364 614.366 35.2857 -21.4673 -0.766946 -0.641711 1 0.5 0 1
155 1 64.3839 63.7583 0 -94.1481 -15.5077 0 -492.108 223.756 41.6386 6.54162 0.511746 -0.859137 1 0.5 0 1
156 1 74.1366 46.7716 0 74.1366 46.7716 0 -37.5871 -261.173 216.203 -145.345 -0.921015 0.389528 1 0.5 0 1
157 1 6.88506 26.641 0 6.88506 26.641 0 135.668 -64.0991 258.345 72.422 0.311218 0.950339 1 0.5 0 1
158 1 67.7471 37.764 0 -11.5189 37.764 0 145.961 36.5098 48.3332 -82.2362 0.302472 -0.953158 1 0.5 0 1
159 1 37.644 65.8144 0 37.644 65.8144 0 424.954 -687.365 -85.7741 145.991 -0.759043 -0.65104 1 0.5 0 1
160 1 2.17247 13.0503 0 2.17247 13.0503 0 534.645 438.814 -75.768 -34.0298 -0.561559 -0.827436 1 0.5 0 1
161 1 34.0073 59.3995 0 34.0073 -19.8665 0 59.1597 240.547 -47.1755 44.9675 0.984383 -0.176038 1 0.5 0 1
162 1 5.8944 49.8499 0 5.8944 49.8499 0 -177.204 -171.452 191.165 -76.1472 -0.37413 -0.927376 1 0.5 0 1
163 1 64.0827 47.7587 0 64.0827 47.7587 0 33.0368 939.309 -159.067 -139.985 -0.0958115 0.995399 1 0.5 0 1
164 1 50.1537 5.17432 0 50.1537 5.17432 0 117.674 -983.693 -48.0709 43.7274 0.189789 -0.981825 1 0.5 0 1
165 1 19.365 70.3234 0 19.365 -8.94264 0 877.517 -441.034 -41.729 90.8773 -0.41729 0.908773 1 0.5 0 1
166 1 10.4563 42.7127 0 10.4563 42.7127 0 318.647 -724.78 -49.5895 -109.372 -0.0514988 0.998673 1 0.5 0 1
167 1 66.5457 26.7642 0 66.5457 26.7642 0 0.511551 -64.2081 114.804 -36.5056 0.986991 -0.160773 1 0.5 0 1
168 1 53.7781 14.0454 0 -25.4879 93.3114 0 -325.936 217.756 -84.4058 53.6252 -0.844058 0.536252 1 0.5 0 1
169 1 66.2449 73.8057 0 -13.0211 153.072 0 -484.54 536.497 -86.9654 49.3661 -0.869654 0.493661 1 0.5 0 1
170 1 15.0472 47.1155 0 94.3132 126.381 0 -34.0444 -399.174 92.9045 13.1273 -0.8703 0.492523 1 0.5 0 1
171 1 49.3445 25.11 0 128.611 25.11 0 -121.712 318.573 42.9905 3.36741 0.989617 0.14373 1 0.5 0 1
172 1 6.97516 55.7403 0 6.97516 -23.5257 0 551.986 -330.23 -15.5705 -58.7776 -0.182393 -0.983226 1 0.5 0 1
173 1 18.4612 50.1504 0 18.4612 -29.1156 0 302.849 -525.321 130.856 33.2994 -0.48486 -0.874592 1 0.5 0 1
174 1 8.53873 50.0073 0 8.53873 50.0073 0 -327.089 -325.806 44.9817 120.373 -0.894607 0.446853 1 0.5 0 1
175 1 67.2689 2.09667 0 -11.9971 2.09667 0 -60.4868 387.67 -10.9031 -66.3605 -0.346225 -0.938152 1 0.5 0 1
176 1 10.0407 48.8111 0 10.0407 48.8111 0 -510.144 531.245 251.54 -249.387 -0.293 0.956113 1 0.5 0 1
177 1 6.92631 62.4089 0 6.92631 62.4089 0 -7.69467 389.444 19.1263 44.213 -0.874383 -0.485236 1 0.5 0 1
178 1 58.7197 27.4417 0 -20.5463 106.708 0 -95.8264 -86.4537 180.674 -140.008 -0.222738 0.974878 1 0.5 0 1
179 1 3.83675 52.644 0 3.83675 -26.622 0 20.9556 271.325 -62.085 66.7431 0.53753 -0.843245 1 0.5 0 1
180 1 74.3297 39.8069 0 74.3297 39.8069 0 105.679 -77.3396 -76.1089 -58.8733 0.422988 0.906135 1 0.5 0 1
181 1 61.6797 16.8459 0 61.6797 16.8459 0 -175.663 12.7069 -30.3253 -69.7579 -0.240915 0.970546 1 0.5 0 1
182 1 47.5015 73.8228 0 -31.7645 73.8228 0 -115.48 390.285 -96.2249 27.2172 -0.962249 0.272172 1 0.5 0 1
183 1 59.1578 55.1189 0 59.1578 -24.1471 0 -181.849 746.773 130.666 -13.3564 -0.30143 0.953488 1 0.5 0 1
184 1 64.2391 41.1075 0 64.2391 41.1075 0 -998.515 407.959 98.005 -168.286 -0.866935 -0.498421 1 0.5 0 1
185 1 14.3638 19.6288 0 14.3638 19.6288 0 -806.165 -535.874 -20.2036 -93.8473 -0.0766946 -0.997055 1 0.5 0 1
186 1 69.9875 9.74149 0 -9.27846 89.0075 0 -25.1481 555.118 -70.2273 53.4836 -0.737132 0.675749 1 0.5 0 1
187 1 56.9579 33.1896 0 -22.3081 112.456 0 -175.378 -168.137 -30.6393 2.80701 0.971984 0.235049 1 0.5 0 1
188 1 33.9324 77.9395 0 113.198 77.9395 0 -158.75 -812.293 -139.992 52.0846 0.856756 0.515722 1 0.5 0 1
189 1 24.4948 46.757 0 24.4948 46.757 0 -148.869 -590.803 28.9185 22.5008 -0.25782 0.966193 1 0.5 0 1
190 1 19.555 53.0201 0 -59.711 53.0201 0 90.6081 228.117 15.582 -28.2425 -0.755784 0.654821 1 0.5 0 1
191 1 65.7631 16.6599 0 145.029 16.6599 0 -315.38 -72.2385 -4.82771 -102.843 0.389913 -0.920852 1 0.5 0 1
192 1 59.7218 36.126 0 59.7218 36.126 0 -299.633 11.0368 -77.7068 41.5337 -0.216917 -0.97619 1 0.5 0 1
193 1 46.038 60.361 0 -33.228 60.361 0 424.274 -287.488 91.6315 40.0459 0.916315 0.400459 1 0.5 0 1
194 1 14.2414 24.4416 0 14.2414 24.4416 0 -277.023 260.025 -50.4847 -24.5734 -0.708784 -0.705425 1 0.5 0 1
195 1 55.4191 28.8537 0 55.4191 28.8537 0 -233.099 -464.205 17.4748 353.905 -0.725408 -0.688319 1 0.5 0 1
196 1 59.6229 39.7038 0 59.6229 39.7038 0 248.536 385.914 -51.0971 -63.198 -0.770961 -0.636882 1 0.5 0 1
197 1 71.1124 59.7358 0 -8.1536 59.7358 0 893.333 -846.137 62.3007 349.743 0.738662 -0.674076 1 0.5 0 1
198 1 74.2364 43.2922 0 74.2364 43.2922 0 54.4625 161.189 240.574 -5.21724 -0.138581 0.990351 1 0.5 0 1
199 1 64.3597 65.9431 0 -14.9063 -13.3229 0 -462.1 -227.902 52.0973 -43.3051 -0.443953 -0.89605 1 0.5 0 1
200 1 5.7972 4.44319 0 85.0632 83.7092 0 373.041 254.438 -39.7853 91.7449 -0.397853 0.917449 1 0.5 0 1
201 1 20.3845 32.3578 0 20.3845 32.3578 0 745.772 -199.283 46.713 84.7295 0.490933 0.871197 1 0.5 0 1
202 1 56.8077 57.0399 0 -22.4583 -22.2261 0 -810.74 3.29171 15.6663 19.4907 0.423579 -0.905859 1 0.5 0 1
203 1 38.691 63.5256 0 -40.575 63.5256 0 150.682 -5.96145 -23.9055 234.952 0.373388 0.927675 1 0.5 0 1
204 1 64.4745 61.7643 0 64.4745 -17.5017 0 -277.933 -753.299 -94.9999 -109.357 -0.183856 -0.982953 1 0.5 0 1
205 1 10.4001 61.0946 0 10.4001 61.0946 0 144.637 344.61 43.0969 71.4436 -0.620391 0.784293 1 0.5 0 1
206 1 1.83648 56.4354 0 1.83648 -22.8306 0 438.44 989.625 -203.114 58.2187 -0.00357548 0.999994 1 0.5 0 1
207 1 40.9249 63.9334 0 40.9249 63.9334 0 120.418 966.496 -38.8292 130.863 0.481537 -0.876426 1 0.5 0 1
208 1 9.823 29.8317 0 9.823 29.8317 0 -345.421 -924.158 -52.957 -27.7266 -0.482636 -0.875821 1 0.5 0 1
209 1 55.0942 25.8785 0 55.0942 105.145 0 473.582 -106.884 19.1355 -169.991 -0.0382716 0.999267 1 0.5 0 1
210 1 66.0513 60.5253 0 -13.2147 60.5253 0 367.777 860.799 268.953 -20.7849 -0.593103 0.805127 1 0.5 0 1
211 1 61.7185 41.2248 0 61.7185 41.2248 0 147.831 -1028.12 -202.563 47.7631 0.998196 -0.060038 1 0.5 0 1
212 1 29.531 9.80429 0 188.063 9.80429 0 -476.672 -65.531 79.9228 60.1028 0.799228 0.601028 1 0.5 0 1
213 1 68.9462 63.75 0 68.9462 63.75 0 -301.037 -567.55 96.6558 -121.598 0.569035 0.822313 1 0.5 0 1
214 1 59.9608 19.362 0 59.9608 98.628 0 59.8198 142.332 -56.0561 125.519 -0.800856 -0.598858 1 0.5 0 1
215 1 55.2216 58.3022 0 55.2216 -20.9638 0 -258.919 852.93 -77.9824 -17.823 0.183243 -0.983068 1 0.5 0 1
216 1 15.7698 42.7654 0 15.7698 122.031 0 -159.878 825.785 -23.3699 -94.2543 -0.115217 0.99334 1 0.5 0 1
217 1 20.6066 37.048 0 99.8726 37.048 0 -222.315 -831.654 69.9682 168.674 0.566747 0.823892 1 0.5 0 1
218 1 46.4002 47.7558 0 46.4002 47.7558 0 579.988 722.986 102.96 99.5661 -0.54102 -0.84101 1 0.5 0 1
219 1 53.5546 42.9799 0 53.5546 42.9799 0 111.812 628.014 -117.65 -198.61 -0.654105 -0.756404 1 0.5 0 1
220 1 32.5154 15.2933 0 32.5154 -63.9727 0 336.703 904.487 0.666003 -100.071 -0.0167199 -0.99986 1 0.5 0 1
221 1 14.2883 65.9321 0 14.2883 145.198 0 -184.374 173.869 -54.8552 83.6116 -0.548552 0.836116 1 0.5 0 1
222 1 37.2561 66.778 0 37.2561 -12.488 0 204.44 7.33498 -46.1361 37.6906 -0.51983 0.85427 1 0.5 0 1
223 1 72.4702 35.6987 0 -6.79581 35.6987 0 -610.614 495.796 38.9847 65.3022 -0.99998 0.00625082 1 0.5 0 1
224 1 75.4321 59.707 0 -3.83386 59.707 0 -53.3005 247.02 1.26692 9.30351 0.136463 -0.990645 1 0.5 0 1
225 1 31.1366 52.2949 0 110.403 -26.9711 0 69.6852 284.081 -25.6918 -96.6433 -0.256918 -0.966433 1 0.5 0 1
226 1 5.40051 68.1561 0 5.40051 -11.1099 0 324.873 1123.72 62.8775 4.67911 -0.957254 0.28925 1 0.5 0 1
227 1 1.82299 34.854 0 81.089 34.854 0 293.497 -413.977 -28.5186 43.8056 -0.964381 -0.264517 1 0.5 0 1
228 1 11.8318 23.2268 0 -67.4342 23.2268 0 469.763 521.248 -94.8105 -229.333 -0.500863 -0.865526 1 0.5 0 1
229 1 52.6824 39.0049 0 52.6824 39.0049 0 795.383 -19.9622 -47.5326 -54.1548 0.0368977 -0.999319 1 0.5 0 1
230 1 53.207 37.3893 0 53.207 116.655 0 -1109.47 18.1772 298.111 23.2929 -0.769576 0.638555 1 0.5 0 1
231 1 16.8802 22.0935 0 16.8802 101.36 0 -832.292 -134.719 -99.5582 9.38923 -0.995582 0.0938923 1 0.5 0 1
232 1 50.9949 28.5391 0 50.9949 -50.7269 0 304.355 -116.327 10.0934 -91.862 0.951788 0.306757 1 0.5 0 1
233 1 7.08979 43.2697 0 7.08979 43.2697 0 57.4056 219.878 147.49 -9.35304 -0.702121 0.712058 1 0.5 0 1
234 1 16.3171 53.2086 0 16.3171 -26.0574 0 -24.4307 -718.628 -30.8538 53.859 -0.666654 0.745367 1 0.5 0 1
235 1 36.8175 16.4307 0 36.8175 95.6967 0 -935.941 249.562 -16.5217 29.1694 0.15588 0.987776 1 0.5 0 1
236 1 39.5323 39.2411 0 118.798 39.2411 0 208.739 146.463 24.5773 -46.0964 0.6255 -0.780224 1 0.5 0 1
237 1 60.1905 12.5549 0 60.1905 12.5549 0 -133.43 310.591 33.3015 -94.2921 0.333015 -0.942921 1 0.5 0 1
238 1 72.4707 19.1582 0 72.4707 98.4242 0 333.823 -263.172 141.402 109.621 0.515143 0.857104 1 0.5 0 1
239 1 3.82523 40.238 0 83.0912 40.238 0 499.299 -434.489 -200.844 114.054 0.803563 0.59522 1 0.5 0 1
240 1 71.2439 13.9635 0 71.2439 13.9635 0 -176.197 -667.093 -96.7462 23.5269 0.858754 0.512388 1 0.5 0 1
241 1 49.6206 35.8718 0 49.6206 35.8718 0 -96.9282 31.9242 -17.6257 -67.3656 -0.289694 0.957119 1 0.5 0 1
242 1 1.53005 60.9013 0 80.796 -18.3647 0 -118.616 -550.858 10.0896 -51.6234 0.661228 -0.750185 1 0.5 0 1
243 1 34.035 79.1926 0 -45.231 79.1926 0 364.839 -797.512 41.9913 71.7789 -0.628416 -0.777877 1 0.5 0 1
244 1 61.8848 23.7406 0 61.8848 103.007 0 -48.9451 963.219 6.79902 -10.2679 0.832489 -0.554041 1 0.5 0 1
245 1 56.5525 49.5032 0 56.5525 49.5032 0 -378.822 -472.802 -61.6881 179.427 -0.450374 0.89284 1 0.5 0 1
246 1 50.2909 39.8802 0 50.2909 39.8802 0 -128.312 -204.409 61.6518 189.346 0.221433 -0.975176 1 0.5 0 1
247 1 67.5466 52.7252 0 67.5466 -26.5408 0 390.7 333.673 145.067 -195.259 -0.677729 -0.735312 1 0.5 0 1
248 1 10.9563 25.2065 0 -68.3097 104.473 0 -43.4143 -157.08 -33.7192 -94.6555 -0.310566 -0.950552 1 0.5 0 1
249 1 5.10655 14.7154 0 84.3725 14.7154 0 -233.226 141.956 19.1045 -119.518 -0.204693 -0.978826 1 0.5 0 1
250 1 53.5538 76.2867 0 132.82 76.2867 0 143.263 -204.344 99.8989 4.49532 0.998989 0.0449532 1 0.5 0 1
251 1 11.0328 12.0716 0 11.0328 170.604 0 40.2495 -36.7951 33.2306 79.4936 -0.0218022 0.999762 1 0.5 0 1
252 1 56.8854 16.7499 0 56.8854 96.0159 0 -302.582 60.2946 53.8709 89.7534 0.57389 0.818933 1 0.5 0 1
253 1 24.9319 55.798 0 24.9319 55.798 0 10.926 122.443 -76.8931 -63.9332 -0.768931 -0.639332 1 0.5 0 1
254 1 47.7796 33.9198 0 47.7796 113.186 0 -153.47 727.578 -67.8456 -57.7192 0.800136 0.599819 1 0.5 0 1
255 1 2.03278 32.2772 0 81.2988 111.543 0 -549.02 133.502 123.63 50.1926 -0.945892 -0.324481 1 0.5 0 1
256 1 69.381 40.9187 0 -9.88505 40.9187 0 -557.547 506.09 -86.9639 37.522 0.99849 -0.0549247 1 0.5 0 1
257 1 8.16323 36.5172 0 8.16323 115.783 0 -191.056 385.794 85.7356 22.6234 0.961393 -0.27518 1 0.5 0 1
258 1 7.98103 23.9556 0 7.98103 -55.3104 0 -165.284 387.336 -179.243 43.7754 -0.988632 0.150355 1 0.5 0 1
259 1 67.2583 72.1657 0 67.2583 72.1657 0 206.807 656.62 -112.94 -13.9465 -0.99971 -0.0240639 1 0.5 0 1
260 1 65.2679 64.2496 0 144.534 -15.0164 0 -792.948 -47.4029 85.6208 38.363 0.674009 -0.738723 1 0.5 0 1
261 1 34.4736 75.7089 0 -44.7924 -3.55712 0 402.05 -671.191 49.1937 2.35084 -0.128638 -0.991692 1 0.5 0 1
262 1 56.9783 58.1099 0 136.244 -21.1561 0 -393.788 149.069 -84.8849 -104.479 0.985422 0.170127 1 0.5 0 1
263 1 41.3823 39.343 0 -37.8837 -39.923 0 -404.246 622.573 -112.56 -11.7098 0.307774 -0.95146 1 0.5 0 1
264 1 4.30079 4.13598 0 162.833 4.13598 0 814.324 -224.514 99.6715 -8.09846 0.996715 -0.0809846 1 0.5 0 1
265 1 54.4595 27.4869 0 54.4595 106.753 0 -100.754 -52.9181 26.6368 116.504 0.123618 0.99233 1 0.5 0 1
266 1 55.9793 51.0819 0 55.9793 51.0819 0 145.111 -174.066 -137.693 -49.2215 0.941737 -0.33635 1 0.5 0 1
267 1 72.2372 62.1684 0 -7.0288 -17.0976 0 397.119 -144.102 -36.0568 28.0211 -0.111614 -0.993752 1 0.5 0 1
268 1 66.7294 58.8498 0 66.7294 58.8498 0 -171.057 245.533 2.81796 -160.366 -0.199958 -0.979804 1 0.5 0 1
269 1 14.2903 47.7325 0 93.5563 47.7325 0 50.3271 -693.023 78.2206 97.6162 0.560196 0.82836 1 0.5 0 1
270 1 37.8599 54.8777 0 117.126 -24.3883 0 -43.971 -396.73 -83.116 19.2189 -0.917744 0.397171 1 0.5 0 1
271 1 63.3173 17.6357 0 63.3173 17.6357 0 -624.209 -333.747 -62.2152 83.1084 0.688608 0.725133 1 0.5 0 1
272 1 52.3324 37.0135 0 52.3324 37.0135 0 466.437 1005.09 -254.643 -222.977 -0.888265 -0.459331 1 0.5 0 1
273 1 59.9954 48.8499 0 59.9954 48.8499 0 -669.28 145.836 284.898 12.0262 0.757495 -0.652842 1 0.5 0 1
274 1 9.47926 13.7053 0 9.47926 13.7053 0 58.3559 766.386 90.9032 41.6726 0.909032 0.416726 1 0.5 0 1
275 1 6.62578 59.366 0 85.8918 -19.9 0 347.021 33.5359 5.83188 -45.4474 -0.546199 0.837655 1 0.5 0 1
276 1 58.9571 44.015 0 58.9571 44.015 0 -357.442 222.21 117.313 -14.0575 0.457296 0.889315 1 0.5 0 1
277 1 3.56608 14.3316 0 -75.6999 14.3316 0 372.493 81.5191 61.0498 66.9488 -0.0357025 0.999362 1 0.5 0 1
278 1 10.1614 30.7884 0 -69.1046 110.054 0 628.816 -176 18.1866 -27.2921 -0.846601 -0.532229 1 0.5 0 1
279 1 38.7832 49.8215 0 118.049 -29.4445 0 149.742 -571.934 -61.5882 -45.227 -0.51031 -0.85999 1 0.5 0 1
280 1 0.727049 10.2379 0 0.727049 -69.0281 0 217.003 -1116.08 7.26192 -37.8961 -0.984981 -0.172663 1 0.5 0 1
281 1 68.8412 54.9849 0 68.8412 54.9849 0 542.481 356.057 36.9762 65.1665 0.0591883 -0.998247 1 0.5 0 1
282 1 48.0224 46.4719 0 48.0224 -32.7941 0 -274.736 638.225 89.1299 -132.374 0.717285 -0.696779 1 0.5 0 1
283 1 69.9553 29.6595 0 -9.31072 108.925 0 -244.768 389.793 48.2327 84.1718 0.169203 0.985581 1 0.5 0 1
284 1 7.68595 25.8654 0 7.68595 105.131 0 562.807 439.047 -21.9367 21.9 0.709561 0.704644 1 0.5 0 1
285 1 66.615 33.0317 0 66.615 33.0317 0 286.166 627.002 -177.917 128.78 0.979029 0.203722 1 0.5 0 1