ITEM: TIMESTEP
210000
ITEM: NUMBER OF ATOMS
4000
ITEM: BOX BOUNDS pp pp pp
0.0000000000000000e+00 7.9266000000000005e+01
0.0000000000000000e+00 7.9266000000000005e+01
-5.0000000000000000e-01 5.0000000000000000e-01
ITEM: ATOMS id type x y z xu yu zu vx vy fx fy mux muy mu radius omegaz mass
1 1 2.87713 63.2284 0 82.1431 63.2284 0 762.689 -409.656 -135.503 -136.032 -0.975368 -0.220584 1 0.5 0 1
2 1 24.2462 67.0505 0 24.2462 -12.2155 0 595.855 367.714 -30.7753 -47.5793 0.854566 0.519343 1 0.5 0 1
3 1 28.045 47.0068 0 28.045 -32.2592 0 -337.319 1023.35 -48.5908 37.9056 -0.991474 0.130307 1 0.5 0 1
4 1 46.6232 4.81007 0 46.6232 84.0761 0 53.1754 90.0277 1.35448 -22.6794 -0.725442 -0.688283 1 0.5 0 1
5 1 5.81855 29.4536 0 5.81855 29.4536 0 -357.556 -803.549 -37.9935 77.9492 -0.954712 -0.297532 1 0.5 0 1
6 1 73.2422 27.0208 0 -6.02376 27.0208 0 -509.217 122.753 -44.8468 -30.6556 -0.997622 0.0689297 1 0.5 0 1
7 1 68.4168 46.8965 0 68.4168 46.8965 0 -577.949 -98.8189 -148.929 -158.357 -0.191316 0.981528 1 0.5 0 1
8 1 23.4492 51.9836 0 23.4492 -27.2824 0 669.738 -389.812 -86.8578 -22.4813 -0.058553 -0.998284 1 0.5 0 1
9 1 69.9646 23.5171 0 69.9646 23.5171 0 -332.172 53.8368 -15.0578 -37.1378 -0.545213 -0.838298 1 0.5 0 1
10 1 20.5791 47.4238 0 20.5791 47.4238 0 125.844 -270.759 -128.788 -45.4588 -0.946684 0.322164 1 0.5 0 1
11 1 36.3188 1.52368 0 -42.9472 1.52368 0 421.148 -345.146 -9.06977 -99.5878 -0.0906977 -0.995878 1 0.5 0 1
12 1 2.11356 19.4644 0 81.3796 98.7304 0 331.358 243.021 -41.5907 60.0203 -0.619077 0.785331 1 0.5 0 1
13 1 47.1364 18.8404 0 47.1364 18.8404 0 1316.96 -1513.2 45.1704 -89.2168 0.451704 -0.892168 1 0.5 0 1
14 1 1.13202 9.41207 0 -78.134 9.41207 0 -162.922 -8.30216 -56.2511 -30.6372 -0.997837 0.0657401 1 0.5 0 1
15 1 11.271 30.6661 0 11.271 30.6661 0 89.1587 206.688 -51.5404 -97.8248 -0.836267 0.548322 1 0.5 0 1
16 1 35.3587 50.6371 0 -43.9073 -28.6289 0 -64.2474 127.613 -115.085 19.5253 -0.940674 -0.339312 1 0.5 0 1
17 1 14.8855 14.2295 0 94.1515 93.4955 0 -618.349 263.574 78.6698 61.7338 0.786698 0.617338 1 0.5 0 1
18 1 17.9572 46.6449 0 17.9572 46.6449 0 48.1309 18.7019 122.436 179.21 0.676822 0.736147 1 0.5 0 1
19 1 6.33705 38.8346 0 6.33705 38.8346 0 340.643 -172.713 -54.4329 69.2894 -0.422254 0.906477 1 0.5 0 1
20 1 17.664 54.3176 0 17.664 54.3176 0 -411.608 272.096 90.368 -37.2338 0.578241 -0.815866 1 0.5 0 1
21 1 11.0027 25.9721 0 11.0027 25.9721 0 -988.088 23.0003 -96.0916 27.6841 -0.960916 0.276841 1 0.5 0 1
22 1 73.6648 21.7738 0 73.6648 21.7738 0 487.394 -179.759 -237.919 40.3059 0.953852 -0.300278 1 0.5 0 1
23 1 22.4603 0.138079 0 101.726 0.138079 0 -22.4812 515.684 93.5166 -3.48162 0.992578 -0.121612 1 0.5 0 1
24 1 66.0717 55.1895 0 66.0717 -24.0765 0 -630.957 -1.15946 157.786 -92.1637 -0.0254257 -0.999677 1 0.5 0 1
25 1 31.1588 45.8309 0 -48.1072 -33.4351 0 -24.7451 36.6569 -177.855 -92.0259 -0.514523 -0.857477 1 0.5 0 1
26 1 46.0951 24.5588 0 46.0951 -54.7072 0 -326.847 -31.9686 -81.8589 -51.4625 0.547301 -0.836936 1 0.5 0 1
27 1 0.721411 12.2557 0 0.721411 91.5217 0 -65.438 -455.382 137.357 -31.3096 -0.522903 0.852392 1 0.5 0 1
28 1 30.174 64.9171 0 30.174 64.9171 0 -322.839 47.8022 77.6538 -2.5465 -0.979755 -0.200201 1 0.5 0 1
29 1 76.3294 36.6108 0 -2.93656 36.6108 0 -332.212 -743.215 110.737 103.838 -0.855318 0.518103 1 0.5 0 1
30 1 57.1823 19.9439 0 57.1823 99.2099 0 830.937 501.769 -138.992 -52.882 0.993787 -0.1113 1 0.5 0 1
31 1 78.622 24.1314 0 -0.644006 24.1314 0 -251.925 292.302 37.2683 69.3636 -0.983555 -0.18061 1 0.5 0 1
32 1 24.8557 30.2183 0 24.8557 30.2183 0 90.9001 -920.841 -14.6404 -9.3091 -0.930148 0.367186 1 0.5 0 1
33 1 64.5076 56.3951 0 64.5076 -22.8709 0 -138.614 650.218 -273.208 136.48 0.900801 0.434233 1 0.5 0 1
34 1 7.68406 42.1884 0 86.9501 42.1884 0 34.4675 285.288 114.149 95.4981 -0.942023 0.335548 1 0.5 0 1
35 1 29.9157 63.0609 0 -49.3503 63.0609 0 -17.7347 -475.07 -72.9 -68.2997 -0.865258 0.501327 1 0.5 0 1
36 1 60.7226 54.8112 0 60.7226 -24.4548 0 83.7311 -773.473 20.3429 -3.42681 0.320723 -0.947173 1 0.5 0 1
37 1 71.5937 40.0521 0 71.5937 40.0521 0 301.801 -52.5743 -0.977236 -9.8192 0.0375777 0.999294 1 0.5 0 1
38 1 22.0763 76.3489 0 101.342 76.3489 0 236.801 208.171 -59.8379 55.8707 0.775476 0.631377 1 0.5 0 1
39 1 48.071 15.7382 0 48.071 -63.5278 0 -634.2 1197.76 84.9878 -52.698 0.849878 -0.52698 1 0.5 0 1
40 1 16.9122 46.7708 0 -62.3538 46.7708 0 439.3 363.425 -78.948 96.8552 -0.140126 0.990134 1 0.5 0 1
41 1 69.7542 50.1323 0 69.7542 50.1323 0 1000.56 -464.132 -151.561 204.253 -0.912283 -0.40956 1 0.5 0 1
42 1 74.211 57.3899 0 -5.05503 57.3899 0 498.525 556.644 76.3622 0.234718 -0.867648 -0.497179 1 0.5 0 1
43 1 30.6091 2.03762 0 -48.6569 81.3036 0 -98.8187 -250.147 -76.9731 108.737 -0.826496 0.562942 1 0.5 0 1
44 1 63.3951 19.524 0 63.3951 98.79 0 524.771 -372.824 156.306 -43.9804 0.909155 -0.416457 1 0.5 0 1
45 1 35.7217 78.1939 0 35.7217 -1.07209 0 758.38 -3.18939 0.813535 -65.1562 -0.721355 -0.692566 1 0.5 0 1
46 1 9.1388 39.194 0 9.1388 39.194 0 -8.6268 332.485 27.0214 -195.132 0.40812 0.912928 1 0.5 0 1
47 1 46.1115 65.4795 0 46.1115 -13.7865 0 328.181 -698.715 36.593 -76.5758 0.667265 -0.74482 1 0.5 0 1
48 1 14.9137 43.8832 0 14.9137 43.8832 0 -442.732 -323.407 -11.8271 -14.2438 -0.940996 0.338419 1 0.5 0 1
49 1 19.5795 6.47793 0 98.8455 85.7439 0 -29.3852 -162.398 2.04233 -6.19919 -0.995184 0.0980267 1 0.5 0 1
50 1 49.274 27.8372 0 49.274 27.8372 0 211.677 -346.396 46.7831 88.8805 -0.22212 0.975019 1 0.5 0 1
51 1 75.7826 14.1623 0 -3.48345 14.1623 0 223.578 -295.991 6.88611 42.5842 -0.901234 0.433332 1 0.5 0 1
52 1 7.58404 29.1112 0 86.85 29.1112 0 -66.4687 142.789 -93.4265 185.368 -0.791057 0.611742 1 0.5 0 1
53 1 12.795 50.7353 0 12.795 130.001 0 941.706 36.2977 -88.7576 10.6511 -0.822281 -0.569082 1 0.5 0 1
54 1 55.7472 26.7856 0 55.7472 26.7856 0 -304.065 -640.008 15.7577 -127.905 0.461969 -0.886896 1 0.5 0 1
55 1 34.6864 18.3074 0 113.952 97.5734 0 467.823 715.723 53.3775 81.6663 0.91024 0.414081 1 0.5 0 1
56 1 23.6293 44.0072 0 23.6293 44.0072 0 -279.041 40.6954 -32.2575 18.2681 -0.730853 0.682535 1 0.5 0 1
57 1 36.0557 75.1082 0 36.0557 75.1082 0 -676.141 142.246 -9.54176 60.2481 -0.953317 0.301972 1 0.5 0 1
58 1 70.6438 25.0683 0 -8.62219 25.0683 0 34.734 402.712 -97.5921 226.133 -0.31172 0.950174 1 0.5 0 1
59 1 54.6856 31.1806 0 54.6856 31.1806 0 -220.731 476.634 124.416 -54.0679 -0.252 0.967727 1 0.5 0 1
60 1 58.0779 37.7741 0 58.0779 37.7741 0 98.7405 236.675 -8.67377 60.3624 0.254181 -0.967157 1 0.5 0 1
61 1 60.7221 41.3213 0 60.7221 41.3213 0 -793.362 266.415 68.7648 -11.5909 -0.198141 0.980173 1 0.5 0 1
62 1 21.0514 7.67088 0 100.317 7.67088 0 -745.987 -97.0174 82.2057 35.5836 0.732804 0.68044 1 0.5 0 1
63 1 22.0761 14.9375 0 -57.1899 14.9375 0 -348.422 -537.719 -43.6898 -89.9511 -0.436898 -0.899511 1 0.5 0 1
64 1 21.4753 15.9248 0 100.741 95.1908 0 -905.773 -18.1598 99.4824 10.1615 0.994824 0.101615 1 0.5 0 1
65 1 37.1845 25.4366 0 116.45 104.703 0 297.804 -418.506 63.3382 -13.9353 0.566208 -0.824262 1 0.5 0 1
66 1 20.8805 22.1916 0 100.146 101.458 0 -40.7786 421.835 -29.7797 95.4629 -0.297797 0.954629 1 0.5 0 1
67 1 56.0547 39.7928 0 56.0547 39.7928 0 1011.8 237.108 45.3274 20.6329 0.935995 -0.352015 1 0.5 0 1
68 1 29.9742 50.8737 0 29.9742 50.8737 0 142.237 -69.9355 -14.4228 29.6638 -0.792185 -0.610281 1 0.5 0 1
69 1 19.3136 57.0305 0 19.3136 57.0305 0 116.82 -213.739 37.4015 119.141 0.0477888 -0.998857 1 0.5 0 1
70 1 50.5103 35.3891 0 50.5103 114.655 0 -895.823 72.7646 40.8057 135.651 0.826029 0.563627 1 0.5 0 1
71 1 49.1948 1.00896 0 49.1948 1.00896 0 158.903 -263.005 91.3655 -40.649 0.913655 -0.40649 1 0.5 0 1
72 1 3.26028 55.1476 0 3.26028 55.1476 0 -135.091 20.1701 -13.8946 9.08352 -0.999968 0.00795455 1 0.5 0 1
73 1 22.2127 31.8135 0 22.2127 31.8135 0 -219.439 356.614 -69.2821 72.111 -0.692821 0.72111 1 0.5 0 1
74 1 69.2629 12.4807 0 69.2629 91.7467 0 -262.174 -319.062 74.3092 -23.0423 -0.876533 0.481342 1 0.5 0 1
75 1 77.9398 35.4912 0 -1.32619 35.4912 0 309.562 90.525 -62.9621 90.1455 0.194267 0.980949 1 0.5 0 1
76 1 51.0851 28.9745 0 -28.1809 28.9745 0 447.581 -222.341 -28.0805 34.0581 -0.445005 0.895528 1 0.5 0 1
77 1 1.73391 32.3039 0 1.73391 32.3039 0 -764.555 -341.55 255.136 -49.5543 0.998083 0.0618977 1 0.5 0 1
78 1 21.8821 70.3159 0 21.8821 70.3159 0 -294.014 356.177 56.4446 -31.5581 0.997934 -0.0642478 1 0.5 0 1
79 1 13.1554 71.8351 0 13.1554 71.8351 0 -485.313 652.273 -56.7368 -82.3464 -0.567368 -0.823464 1 0.5 0 1
80 1 4.45305 23.0616 0 4.45305 -56.2044 0 -640.199 112.579 -44.3173 96.7114 -0.832144 0.55456 1 0.5 0 1
81 1 48.2505 33.8192 0 127.517 33.8192 0 -953.029 -679.397 126.408 36.9891 0.243209 -0.969974 1 0.5 0 1
82 1 3.26194 36.575 0 3.26194 36.575 0 -563.006 -626.244 14.3959 116.754 0.637646 0.77033 1 0.5 0 1
83 1 8.24161 18.6177 0 87.5076 97.8837 0 -314.938 147.114 89.852 43.8932 0.89852 0.438932 1 0.5 0 1
84 1 78.1499 42.6928 0 -1.11614 42.6928 0 -138.118 296.625 -47.8921 -135.141 0.12863 -0.991693 1 0.5 0 1
85 1 21.5309 54.8534 0 21.5309 -24.4126 0 39.8484 192.408 -47.44 -33.682 0.996525 0.0832947 1 0.5 0 1
86 1 13.5078 38.1221 0 13.5078 38.1221 0 135.962 -363.633 -91.5232 13.7075 -0.558993 0.829172 1 0.5 0 1
87 1 15.964 40.9748 0 15.964 40.9748 0 -312.484 -197.029 -77.4813 -16.3424 -0.995815 -0.0913906 1 0.5 0 1
88 1 27.8336 7.79246 0 27.8336 7.79246 0 896.385 683.741 -27.8961 -32.1879 -0.00734085 -0.999973 1 0.5 0 1
89 1 23.4152 61.2891 0 23.4152 61.2891 0 36.3044 712.052 -13.2559 29.7577 0.929963 -0.367654 1 0.5 0 1
90 1 6.67633 35.3818 0 6.67633 35.3818 0 -151.237 -264.699 3.60015 -33.052 -0.774735 0.632287 1 0.5 0 1
91 1 17.1518 59.1138 0 17.1518 -20.1522 0 -414.42 31.2027 82.1421 -53.8384 -0.474733 -0.88013 1 0.5 0 1
92 1 3.17748 52.2082 0 3.17748 52.2082 0 -621.76 80.1872 70.8227 227.047 -0.677447 0.735572 1 0.5 0 1
93 1 3.3527 42.8447 0 3.3527 42.8447 0 -440.479 116.346 117.232 -141.702 0.80738 0.590031 1 0.5 0 1
94 1 72.4589 34.1283 0 72.4589 34.1283 0 -265.617 -464.077 -208.607 -2.1371 0.73118 -0.682185 1 0.5 0 1
95 1 68.3236 45.908 0 68.3236 45.908 0 -519.476 -1013.87 114.289 320.36 0.634206 0.773164 1 0.5 0 1
96 1 55.776 38.8426 0 55.776 38.8426 0 323.967 -93.0496 18.4355 -60.7806 0.72422 0.689569 1 0.5 0 1
97 1 48.3417 25.7824 0 48.3417 25.7824 0 -970.43 77.8817 -59.4349 11.6029 -0.996638 -0.0819295 1 0.5 0 1
98 1 49.964 3.69114 0 49.964 82.9571 0 136.25 3.72692 82.0012 -57.2346 0.820012 -0.572346 1 0.5 0 1
99 1 42.3279 47.4593 0 42.3279 -31.8067 0 148.002 -186.798 64.7748 -76.1855 0.647748 -0.761855 1 0.5 0 1
100 1 74.3757 41.1392 0 74.3757 41.1392 0 -1503.79 156.914 200.536 125.967 -0.999837 0.0180588 1 0.5 0 1
101 1 50.2041 44.7992 0 50.2041 -34.4668 0 -1281.32 101.678 -48.4201 95.5365 0.984838 -0.173476 1 0.5 0 1
102 1 1.10736 40.1022 0 1.10736 40.1022 0 24.678 582.291 368.901 -105.785 -0.913736 0.406308 1 0.5 0 1
103 1 48.8184 19.0776 0 -30.4476 98.3436 0 831.708 129.994 -89.6404 42.7757 -0.801718 0.597702 1 0.5 0 1
104 1 55.3787 40.4753 0 55.3787 119.741 0 -66.3223 -166.282 -83.6668 -14.9261 0.855803 0.517301 1 0.5 0 1
105 1 53.0061 12.2208 0 -26.2599 12.2208 0 -481.668 -183.059 132.849 -56.1488 0.582684 0.812699 1 0.5 0 1
106 1 0.0537659 13.8925 0 0.0537659 13.8925 0 295.955 875.233 -67.096 4.42185 -0.83509 -0.550113 1 0.5 0 1
107 1 63.7539 33.7055 0 63.7539 33.7055 0 705.699 494.517 135.511 -19.9234 -0.993165 0.11672 1 0.5 0 1
108 1 2.04389 34.2234 0 2.04389 113.489 0 -191.425 -125.71 67.2299 64.8107 0.960656 0.27774 1 0.5 0 1
109 1 34.8417 65.3168 0 -44.4243 65.3168 0 18.6235 659.078 18.3286 -6.05616 -0.793408 0.608691 1 0.5 0 1
110 1 48.5755 31.0821 0 48.5755 31.0821 0 -654.498 462.164 -57.1155 150.26 0.525489 0.8508 1 0.5 0 1
111 1 56.353 70.565 0 56.353 70.565 0 165.99 1110.89 22.8849 97.3462 0.228849 0.973462 1 0.5 0 1
112 1 11.5032 46.1109 0 11.5032 46.1109 0 545.113 -520.937 178.133 -98.3901 -0.943232 -0.332136 1 0.5 0 1
113 1 33.791 60.8481 0 -45.475 60.8481 0 68.6339 -135.937 -3.93422 10.5093 -0.79321 0.608948 1 0.5 0 1
114 1 54.3898 51.7807 0 54.3898 51.7807 0 212.892 -148.284 -272.55 38.0398 0.963089 -0.269184 1 0.5 0 1
115 1 60.0496 73.8856 0 -19.2164 -5.38044 0 -460.992 376.487 94.173 -39.4449 0.930312 -0.366769 1 0.5 0 1
116 1 27.0815 57.8627 0 27.0815 -21.4033 0 -230.818 -128.282 -70.4287 18.606 -0.977945 -0.208864 1 0.5 0 1
117 1 26.7207 48.8541 0 26.7207 48.8541 0 830.49 -340.046 -48.8873 -34.5683 -0.278765 -0.960359 1 0.5 0 1
118 1 56.4468 38.1507 0 56.4468 38.1507 0 2.66434 -895.399 -31.7806 108.841 0.66368 -0.748016 1 0.5 0 1
119 1 1.45159 68.5376 0 80.7176 -10.7284 0 203.425 474.905 -63.1162 -14.5619 0.783906 -0.620879 1 0.5 0 1
120 1 44.9329 3.28457 0 124.199 3.28457 0 845.376 -373.463 1.91682 -99.9816 0.0191682 -0.999816 1 0.5 0 1
121 1 12.4295 3.85975 0 -66.8365 3.85975 0 -283.69 -959.017 -83.3873 -55.1956 -0.833873 -0.551956 1 0.5 0 1
122 1 55.5899 20.9325 0 55.5899 100.199 0 -45.7118 -449.439 164.694 32.0499 0.627505 0.778612 1 0.5 0 1
123 1 77.9077 29.1459 0 -1.3583 29.1459 0 912.788 150.569 -9.64476 15.5376 -0.835652 0.549259 1 0.5 0 1
124 1 23.4929 46.1633 0 23.4929 46.1633 0 -168.165 269.398 -119.965 -33.2073 -0.857885 0.513841 1 0.5 0 1
125 1 68.148 24.3539 0 68.148 24.3539 0 437.219 751.636 -200.187 -289.568 0.996219 -0.0868802 1 0.5 0 1
126 1 9.60735 30.9031 0 88.8733 110.169 0 316.508 -569.853 -95.0757 64.5646 -0.668666 0.743563 1 0.5 0 1
127 1 60.2615 27.53 0 60.2615 106.796 0 283.003 -464.655 -18.0342 141.819 0.939161 0.343476 1 0.5 0 1
128 1 7.20919 24.3115 0 -72.0568 24.3115 0 -1157.95 516.387 139.292 -58.4901 -0.980019 -0.198905 1 0.5 0 1
129 1 67.8348 54.9459 0 67.8348 -24.3201 0 38.5266 -239.171 -106.778 1.43482 0.552837 -0.83329 1 0.5 0 1
130 1 73.7368 53.467 0 73.7368 -25.799 0 -97.3939 284.461 43.1188 46.8851 -0.114543 -0.993418 1 0.5 0 1
131 1 57.8432 12.2014 0 -21.4228 91.4674 0 -233.091 -655.642 165.02 -18.6933 0.497672 0.867365 1 0.5 0 1
132 1 62.9831 28.876 0 -16.2829 108.142 0 242.955 105.132 17.7919 82.4517 0.393881 0.919161 1 0.5 0 1
133 1 49.0877 26.7685 0 49.0877 106.035 0 -574.679 192.24 -109.38 11.4475 -0.966938 0.25501 1 0.5 0 1
134 1 25.2889 46.4713 0 25.2889 46.4713 0 516.804 -59.945 -56.455 -45.5223 -0.828604 -0.559836 1 0.5 0 1
135 1 18.516 45.296 0 18.516 124.562 0 73.9575 150.284 -241.25 -11.2352 -0.864873 0.501991 1 0.5 0 1
136 1 19.9219 19.6023 0 19.9219 98.8683 0 -798.007 17.7498 7.24425 25.427 -0.287993 -0.957633 1 0.5 0 1
137 1 51.6131 4.81488 0 130.879 84.0809 0 710.016 -86.8657 -10.2546 99.4728 -0.102546 0.994728 1 0.5 0 1
138 1 67.6231 78.6167 0 -11.6429 -0.649332 0 -403.764 -1069.45 -74.1881 -67.0532 -0.741881 -0.670532 1 0.5 0 1
139 1 33.7763 53.4452 0 33.7763 -25.8208 0 -12.7964 342.153 -29.0362 -127.112 0.555063 -0.831808 1 0.5 0 1
140 1 31.577 78.6363 0 31.577 -0.629661 0 3.06912 -8.03706 49.9269 -18.1506 -0.939 -0.343917 1 0.5 0 1
141 1 8.43126 53.2912 0 8.43126 53.2912 0 63.2605 304.962 105.049 -6.59228 0.42868 -0.903456 1 0.5 0 1
142 1 24.2456 74.6297 0 24.2456 74.6297 0 410.175 -575.392 0.599488 -1.39053 -0.507194 0.861832 1 0.5 0 1
143 1 11.4855 31.659 0 11.4855 110.925 0 17.6521 -76.2501 32.0046 87.319 -0.950036 0.312139 1 0.5 0 1
144 1 33.0896 45.1325 0 33.0896 -34.1335 0 437.236 42.3271 -57.1046 -5.51982 -0.990068 0.140587 1 0.5 0 1
145 1 71.589 15.8964 0 71.589 95.1624 0 286.824 -98.427 161.81 -48.4403 0.565938 -0.824448 1 0.5 0 1
146 1 46.896 71.0842 0 46.896 -8.18175 0 -100.814 -560.494 96.461 -26.3681 0.96461 -0.263681 1 0.5 0 1
147 1 77.6658 67.2432 0 77.6658 -12.0228 0 -806.547 -142.336 152.205 -38.383 0.583372 -0.812205 1 0.5 0 1
148 1 25.0352 24.1276 0 104.301 24.1276 0 137.542 201.554 2.9082 109.343 -0.0272094 0.99963 1 0.5 0 1
149 1 75.2377 28.92 0 75.2377 108.186 0 -857.258 -689.409 -95.1971 -2.4554 0.218814 -0.975767 1 0.5 0 1
150 1 69.6549 32.9337 0 -9.61114 32.9337 0 436.187 -197.652 36.7408 221.271 0.288372 0.957519 1 0.5 0 1
151 1 2.40585 54.6656 0 81.6718 -24.6004 0 15.3208 -642.461 -13.052 -249.756 0.930306 -0.366785 1 0.5 0 1
152 1 35.3474 33.3299 0 35.3474 112.596 0 -336.94 -620.846 26.7306 -96.3612 0.267306 -0.963612 1 0.5 0 1
153 1 75.856 57.1557 0 75.856 57.1557 0 -552.635 237.548 145.54 32.3038 0.864882 -0.501975 1 0.5 0 1
154 1 3.79193 46.7312 0 3.79193 46.7312 0 190.721 -287.493 -93.5109 208.829 -0.373616 -0.927583 1 0.5 0 1
155 1 67.4985 75.5984 0 -91.0335 -3.66757 0 -382.818 -139.406 -14.3405 -70.8812 -0.357089 -0.93407 1 0.5 0 1
156 1 75.122 45.8732 0 75.122 45.8732 0 415.141 354.895 59.3765 -12.3267 -0.99739 -0.0722056 1 0.5 0 1
157 1 1.45439 17.6313 0 1.45439 17.6313 0 154.335 -167.31 -36.9442 28.0671 0.284161 0.958777 1 0.5 0 1
158 1 69.2114 36.3831 0 -10.0546 36.3831 0 985.862 88.1462 -75.5488 88.8188 -0.986149 0.165861 1 0.5 0 1
159 1 55.8772 74.1224 0 55.8772 74.1224 0 -60.2637 729.862 -73.6684 6.74767 -0.943919 -0.330176 1 0.5 0 1
160 1 28.536 14.0326 0 28.536 14.0326 0 -79.5743 309.443 -53.9777 96.0755 -0.643651 0.765319 1 0.5 0 1
161 1 23.01 72.8507 0 23.01 -6.41528 0 336.086 572.39 58.0181 23.952 0.714108 -0.700035 1 0.5 0 1
162 1 6.49645 49.1733 0 6.49645 49.1733 0 -61.1361 1041.48 -105.748 96.5923 0.412085 -0.911145 1 0.5 0 1
163 1 65.13 45.704 0 65.13 45.704 0 -422.263 -401.915 73.9068 108.711 -0.497714 -0.867341 1 0.5 0 1
164 1 34.8522 25.2803 0 34.8522 25.2803 0 -181.293 -72.0964 96.6031 25.8425 0.966031 0.258425 1 0.5 0 1
165 1 30.7077 47.9115 0 30.7077 -31.3545 0 -638.706 630.245 18.1907 -113.574 -0.238541 0.971132 1 0.5 0 1
166 1 12.1235 42.4348 0 12.1235 42.4348 0 -114.758 172.41 -51.987 33.4592 -0.79355 0.608505 1 0.5 0 1
167 1 67.1871 24.5405 0 67.1871 24.5405 0 531.416 218.436 57.282 -151.933 0.793024 -0.60919 1 0.5 0 1
168 1 2.76827 12.7918 0 2.76827 92.0578 0 651.624 552.264 -43.4445 -45.9086 -0.71807 -0.695971 1 0.5 0 1
169 1 12.503 64.031 0 12.503 143.297 0 18.7372 53.5838 -56.8734 82.2522 -0.568734 0.822522 1 0.5 0 1
170 1 19.6556 35.7547 0 98.9216 115.021 0 -258.769 -267.573 5.73255 99.8356 0.0573255 0.998356 1 0.5 0 1
171 1 48.266 28.0317 0 127.532 28.0317 0 217.729 605.497 55.7267 17.7672 0.874413 0.485182 1 0.5 0 1
172 1 6.71878 54.2394 0 6.71878 -25.0266 0 165.129 330.694 -107.215 14.353 -0.318494 -0.947925 1 0.5 0 1
173 1 21.6447 58.8383 0 21.6447 -20.4277 0 -158.96 91.8438 -24.8068 -78.8643 -0.424619 -0.905372 1 0.5 0 1
174 1 9.08331 49.6705 0 9.08331 49.6705 0 -124.993 -289.622 -21.4877 176.943 -0.950227 0.311559 1 0.5 0 1
175 1 1.00829 14.2677 0 1.00829 14.2677 0 38.1946 -142.794 88.1147 39.7134 -0.999857 0.0169235 1 0.5 0 1
176 1 10.7344 47.6603 0 10.7344 47.6603 0 611.564 -71.6322 -230.249 156.101 -0.431932 0.901906 1 0.5 0 1
177 1 11.6307 75.7651 0 11.6307 75.7651 0 386.589 554.867 -65.3129 -39.7588 -0.129885 -0.991529 1 0.5 0 1
178 1 59.9831 25.4446 0 -19.2829 104.711 0 137.587 -168.076 155.768 59.6702 0.372671 0.927963 1 0.5 0 1
179 1 4.08037 52.6923 0 4.08037 -26.5737 0 -129.422 371.388 14.0927 -182.454 -0.411357 -0.911474 1 0.5 0 1
180 1 75.8153 39.0769 0 75.8153 39.0769 0 -5.81802 -523.502 -211.437 159.965 -0.94859 0.316508 1 0.5 0 1
181 1 57.6676 20.8646 0 57.6676 20.8646 0 -653.412 128.975 60.4044 -36.1003 -0.926743 0.375696 1 0.5 0 1
182 1 71.8556 1.42738 0 -7.41042 80.6934 0 -353.81 416.385 -80.3749 -59.4968 -0.803749 -0.594968 1 0.5 0 1
183 1 59.7576 53.4283 0 59.7576 -25.8377 0 -341.948 -54.684 -155.926 -49.7262 0.0316276 0.9995 1 0.5 0 1
184 1 65.3442 39.3156 0 65.3442 39.3156 0 91.3267 -479.886 -231.09 169.26 -0.97063 0.240577 1 0.5 0 1
185 1 12.3638 36.6515 0 12.3638 36.6515 0 -698.585 -192.381 174.846 -27.5341 -0.409552 -0.912287 1 0.5 0 1
186 1 16.7367 78.2681 0 16.7367 78.2681 0 -247.2 880.966 -79.9202 60.1062 -0.799202 0.601062 1 0.5 0 1
187 1 59.1643 31.8414 0 -20.1017 111.107 0 -448.736 222.196 -105.782 8.59279 0.97339 0.229156 1 0.5 0 1
188 1 26.269 78.0427 0 105.535 78.0427 0 -742.167 33.5557 94.0738 91.3274 0.88082 0.473452 1 0.5 0 1
189 1 30.6792 26.6658 0 30.6792 26.6658 0 -567.798 -430.607 9.38635 67.8721 -0.242997 0.970027 1 0.5 0 1
190 1 34.7838 60.4406 0 -44.4822 60.4406 0 423.227 -257.813 -83.3962 -53.2189 -0.919023 -0.394205 1 0.5 0 1
191 1 61.7723 16.1369 0 141.038 16.1369 0 -522.664 -259.237 199.582 -75.5615 0.999852 -0.0172261 1 0.5 0 1
192 1 61.4297 34.5072 0 61.4297 34.5072 0 -856.99 406.857 203.842 -72.8502 0.583085 -0.812411 1 0.5 0 1
193 1 30.0203 40.9327 0 -49.2457 40.9327 0 -17.3905 -185.716 -66.4133 31.1963 -0.109569 0.993979 1 0.5 0 1
194 1 23.0487 49.2282 0 23.0487 49.2282 0 216.014 117.361 -77.0538 -123.462 0.418871 -0.908046 1 0.5 0 1
195 1 56.6718 27.1653 0 56.6718 27.1653 0 336.212 140.323 37.3177 -49.0606 0.0299277 0.999552 1 0.5 0 1
196 1 60.6936 37.701 0 60.6936 37.701 0 42.1369 379.474 -143.355 69.2633 -0.46539 -0.885106 1 0.5 0 1
197 1 70.9818 59.1252 0 -8.2842 59.1252 0 -336.241 -52.651 240.815 4.82193 0.985157 -0.171655 1 0.5 0 1
198 1 75.4736 42.4693 0 75.4736 42.4693 0 120.175 237.622 115.965 -119.889 -0.808288 0.588788 1 0.5 0 1
199 1 69.9735 63.5595 0 -9.29248 -15.7065 0 482.057 1060.37 -15.3544 -61.8347 0.355051 -0.934847 1 0.5 0 1
200 1 54.0295 76.0311 0 54.0295 76.0311 0 -410.484 163.632 99.7808 -6.61814 0.997808 -0.0661814 1 0.5 0 1
201 1 17.1589 76.7162 0 17.1589 -2.54983 0 -234.349 530.871 -1.48633 70.2792 0.238864 0.971053 1 0.5 0 1
202 1 56.9144 55.0928 0 -22.3516 -24.1732 0 -489.804 901.023 27.3599 -27.0863 -0.835547 -0.549419 1 0.5 0 1
203 1 40.4784 65.8756 0 -38.7876 65.8756 0 -222.751 -119.31 -24.7021 -53.8183 -0.962076 0.272781 1 0.5 0 1
204 1 66.2788 63.0944 0 66.2788 -16.1716 0 353.735 29.4152 45.7374 55.2658 0.0568978 -0.99838 1 0.5 0 1
205 1 15.4527 53.6193 0 15.4527 53.6193 0 -158.7 212.516 -154.541 -1.7628 -0.876607 0.481207 1 0.5 0 1
206 1 1.5516 56.1452 0 1.5516 -23.1208 0 406.162 -576.176 -14.4059 -0.095996 -0.986773 -0.162106 1 0.5 0 1
207 1 29.8049 74.8135 0 29.8049 74.8135 0 -76.6488 -16.4212 -58.4477 60.1667 0.96717 0.25413 1 0.5 0 1
208 1 13.7521 33.2777 0 13.7521 33.2777 0 515.132 968.761 -74.0936 -1.79112 -0.962822 0.270136 1 0.5 0 1
209 1 50.9816 24.7681 0 50.9816 104.034 0 -8.91852 52.0734 11.7844 1.46254 0.835025 0.550212 1 0.5 0 1
210 1 65.7558 59.8475 0 -13.5102 59.8475 0 -6.58066 500.485 162.908 -31.1337 -0.846143 -0.532956 1 0.5 0 1
211 1 62.8115 39.2924 0 62.8115 39.2924 0 -192.519 -110.999 -28.0689 -165.748 0.367778 -0.929914 1 0.5 0 1
212 1 75.8558 70.3455 0 155.122 -8.9205 0 173.534 -360.436 50.8388 14.2492 0.995209 -0.0977754 1 0.5 0 1
213 1 69.5029 61.5474 0 69.5029 61.5474 0 -383.465 -914.711 -50.5131 -19.4354 -0.330228 0.943901 1 0.5 0 1
214 1 60.8076 23.755 0 60.8076 103.021 0 865.037 333.459 -91.7142 46.2953 -0.413 -0.910731 1 0.5 0 1
215 1 47.7484 68.5873 0 47.7484 -10.6787 0 205.116 -891.905 76.2867 -64.6555 0.762867 -0.646555 1 0.5 0 1
216 1 21.8 45.0011 0 21.8 124.267 0 -509.398 -331.289 -100.786 -185.713 0.425749 0.904841 1 0.5 0 1
217 1 12.4278 7.64152 0 91.6938 7.64152 0 -499.077 322.976 62.0352 -5.86445 0.957332 0.288991 1 0.5 0 1
218 1 51.0895 46.4859 0 51.0895 46.4859 0 77.6461 609.937 72.4951 1.8416 0.824042 -0.566529 1 0.5 0 1
219 1 54.6618 41.1402 0 54.6618 41.1402 0 308.755 -133.111 -79.0343 -78.7447 -0.793284 -0.608851 1 0.5 0 1
220 1 29.4634 49.1668 0 29.4634 -30.0992 0 149.451 -113.856 51.9413 -89.6757 0.0747676 -0.997201 1 0.5 0 1
221 1 37.2612 44.6351 0 37.2612 123.901 0 338.406 698.563 90.8009 24.7809 0.274901 0.961473 1 0.5 0 1
222 1 35.3068 42.9675 0 35.3068 -36.2985 0 395.75 -730.168 78.259 62.2538 0.78259 0.622538 1 0.5 0 1
223 1 74.3201 34.896 0 -4.94594 34.896 0 467.865 89.292 -221.19 -59.0177 -0.577473 0.81641 1 0.5 0 1
224 1 74.6303 59.3136 0 -4.63574 59.3136 0 -285.121 222.957 43.5565 -87.7648 0.994297 0.106651 1 0.5 0 1
225 1 24.8792 63.2787 0 104.145 -15.9873 0 143.314 -103.578 4.55019 35.9958 0.953496 -0.301405 1 0.5 0 1
226 1 24.9173 56.4416 0 24.9173 -22.8244 0 53.9426 -66.7832 127.998 140.159 -0.480435 0.877031 1 0.5 0 1
227 1 3.8147 34.0813 0 83.0807 34.0813 0 -29.5506 -556.814 -115.772 157.755 -0.958389 0.285464 1 0.5 0 1
228 1 34.0457 44.6945 0 -45.2203 44.6945 0 -920.99 -313.235 -31.8064 -33.2089 -0.739722 -0.672913 1 0.5 0 1
229 1 53.6267 37.2861 0 53.6267 37.2861 0 -616.663 -45.5789 -158.313 -75.2087 0.999798 0.0201012 1 0.5 0 1
230 1 54.0349 35.6007 0 54.0349 114.867 0 181.94 -587.956 89.1935 116.074 -0.583838 0.81187 1 0.5 0 1
231 1 53.8807 8.22946 0 53.8807 87.4955 0 398.573 1335.11 -123.201 -54.3198 -0.919982 0.391961 1 0.5 0 1
232 1 51.8863 30.3061 0 51.8863 -48.9599 0 515.873 421.578 -7.73788 118.808 0.999155 0.0410893 1 0.5 0 1
233 1 8.62872 42.6336 0 8.62872 42.6336 0 103.494 332.521 -78.6622 16.616 -0.922798 -0.385284 1 0.5 0 1
234 1 18.8984 52.9096 0 18.8984 -26.3564 0 422.387 -839.105 138.437 175.988 -0.982127 0.188219 1 0.5 0 1
235 1 21.4414 74.3316 0 21.4414 74.3316 0 -7.84657 -97.0847 0.327335 4.61915 0.410746 0.91175 1 0.5 0 1
236 1 31.3905 66.6237 0 110.657 66.6237 0 -107.692 170.921 -96.6251 -264.556 0.0302794 -0.999541 1 0.5 0 1
237 1 57.8057 22.6214 0 57.8057 22.6214 0 -269.675 -294.533 -11.9341 -31.9497 0.123286 -0.992371 1 0.5 0 1
238 1 68.2056 15.89 0 68.2056 95.156 0 116.797 56.4078 -23.1555 -5.87621 0.708492 0.705719 1 0.5 0 1
239 1 5.54281 39.3836 0 84.8088 39.3836 0 -362.752 -936.083 -70.0085 330.008 0.438294 0.898831 1 0.5 0 1
240 1 56.9661 10.0682 0 56.9661 10.0682 0 -601.127 308.03 20.2848 -43.1332 0.983983 0.178261 1 0.5 0 1
241 1 50.2386 34.4146 0 50.2386 34.4146 0 657.132 28.5002 68.3166 -297.256 -0.335833 -0.941922 1 0.5 0 1
242 1 0.793815 60.5465 0 80.0598 -18.7195 0 -352.905 -363.313 -50.9001 38.5555 -0.23461 -0.97209 1 0.5 0 1
243 1 43.5664 17.1278 0 -35.6996 96.3938 0 611.027 428.421 -90.93 14.3694 -0.940195 -0.340636 1 0.5 0 1
244 1 45.2312 19.2091 0 45.2312 98.4751 0 29.6164 384.167 37.4373 92.7278 0.374373 0.927278 1 0.5 0 1
245 1 57.5077 47.5591 0 57.5077 47.5591 0 -802.843 708.244 -14.1556 133.223 0.938239 -0.345987 1 0.5 0 1
246 1 51.248 38.3351 0 51.248 38.3351 0 102.096 -680.736 -137.656 -45.7117 0.701838 -0.712336 1 0.5 0 1
247 1 68.1866 51.3698 0 68.1866 -27.8962 0 -226.971 -110.85 -90.8753 -187.67 -0.396295 -0.918123 1 0.5 0 1
248 1 33.0665 43.7244 0 -46.1995 122.99 0 -567.109 -292.708 13.5049 157.425 -0.980988 -0.194067 1 0.5 0 1
249 1 78.8152 19.7153 0 78.8152 19.7153 0 5.22472 -184.907 81.375 28.0564 0.185468 -0.98265 1 0.5 0 1
250 1 28.4643 78.309 0 107.73 78.309 0 -3.83131 -276.767 -89.7947 -61.7239 0.983934 0.178533 1 0.5 0 1
251 1 29.9762 2.87411 0 29.9762 161.406 0 396.018 -483.478 -24.192 56.2878 -0.953431 -0.301613 1 0.5 0 1
252 1 38.925 71.0153 0 38.925 71.0153 0 10.6261 128.257 1.76784 -8.12612 0.22039 0.975412 1 0.5 0 1
253 1 21.9623 72.9537 0 21.9623 72.9537 0 309.413 5.785 -59.7948 -74.316 0.890555 -0.454875 1 0.5 0 1
254 1 46.5188 34.2513 0 46.5188 113.517 0 528.522 -55.9429 -159.61 104.376 0.540826 0.841135 1 0.5 0 1
255 1 4.34129 31.5717 0 83.6073 110.838 0 42.0824 -60.4656 84.0767 63.8117 -0.72366 0.690157 1 0.5 0 1
256 1 70.6541 39.675 0 -8.61187 39.675 0 129.682 26.277 -103.082 75.0835 0.953031 0.302871 1 0.5 0 1
257 1 9.45919 35.631 0 9.45919 114.897 0 -121.527 170.924 -117.493 -124.264 -0.429778 -0.902934 1 0.5 0 1
258 1 16.8537 30.5879 0 16.8537 -48.6781 0 -198.874 1106.52 -77.7793 -62.852 -0.777793 -0.62852 1 0.5 0 1
259 1 7.52942 63.1425 0 86.7954 63.1425 0 -11.5293 967.691 -80.9267 14.877 -0.99037 0.138444 1 0.5 0 1
260 1 60.1204 3.02813 0 139.386 3.02813 0 -266.697 -24.1625 61.1177 -52.4108 0.873215 -0.487335 1 0.5 0 1
261 1 37.8827 7.14077 0 -41.3833 7.14077 0 867.121 580.427 -83.0076 -57.4476 -0.898242 -0.439502 1 0.5 0 1
262 1 57.0513 56.1381 0 136.317 -23.1279 0 -440.258 -346.157 40.8879 -56.4602 0.555463 -0.831541 1 0.5 0 1
263 1 34.209 64.2314 0 -45.057 -15.0346 0 -168.025 510.312 -4.96713 -41.0176 0.0564936 -0.998403 1 0.5 0 1
264 1 57.7914 14.1669 0 137.057 14.1669 0 -390.633 461.864 116.449 96.0174 0.981856 -0.189629 1 0.5 0 1
265 1 53.9285 26.0542 0 53.9285 105.32 0 148.357 204.144 -42.0826 45.1574 0.940649 0.33938 1 0.5 0 1
266 1 56.8046 49.0901 0 56.8046 49.0901 0 -467.244 -195.336 6.68182 204.72 0.997842 -0.0656536 1 0.5 0 1
267 1 75.2648 63.2209 0 -4.00116 -16.0451 0 1172.04 0.46538 103.76 -40.4497 0.182546 -0.983197 1 0.5 0 1
268 1 66.4952 58.2229 0 66.4952 58.2229 0 -198.916 930.939 -151.056 -114.42 0.882288 -0.47071 1 0.5 0 1
269 1 19.9571 38.4796 0 99.2231 38.4796 0 -665.345 297.03 -92.9506 36.8807 -0.929506 0.368807 1 0.5 0 1
270 1 52.0737 47.8798 0 131.34 -31.3862 0 -439.203 -690.907 -45.715 -77.2811 -0.378609 -0.925557 1 0.5 0 1
271 1 58.7508 20.8584 0 58.7508 20.8584 0 -874.777 316.096 37.5542 -205.608 0.831967 -0.554824 1 0.5 0 1
272 1 53.0961 35.2789 0 53.0961 35.2789 0 -99.4693 -61.6617 40.5048 108.881 -0.98766 0.156616 1 0.5 0 1
273 1 60.9952 47.0447 0 60.9952 47.0447 0 -277.852 285.046 -18.893 -118.496 0.512582 -0.858638 1 0.5 0 1
274 1 9.04473 61.2511 0 9.04473 -18.0149 0 -381.271 -131.081 -6.51684 101.743 0.222286 0.974982 1 0.5 0 1
275 1 5.19259 59.0392 0 84.4586 -20.2268 0 -427.796 321.925 63.9795 -45.5803 -0.937674 -0.347515 1 0.5 0 1
276 1 60.0403 41.9928 0 60.0403 41.9928 0 -317.196 -433.504 -59.0041 221.277 0.916944 -0.399016 1 0.5 0 1
277 1 24.4769 13.5742 0 -54.7891 13.5742 0 -60.8381 -605.458 -110.583 16.8237 -0.995636 -0.0933202 1 0.5 0 1
278 1 19.7561 25.4289 0 -59.5099 104.695 0 -99.8169 433.764 -84.7315 53.109 -0.847315 0.53109 1 0.5 0 1
279 1 52.2915 7.99474 0 131.558 7.99474 0 -1.72204 -353.965 39.7736 -91.75 0.397736 -0.9175 1 0.5 0 1
280 1 21.4003 25.6484 0 21.4003 -53.6176 0 28.6709 -613.225 -48.4257 -87.4926 -0.484257 -0.874926 1 0.5 0 1
281 1 68.613 54.3313 0 68.613 54.3313 0 214.275 -435.194 62.8244 146.775 0.934411 0.356198 1 0.5 0 1
282 1 49.3446 45.3749 0 49.3446 -33.8911 0 -71.5132 197.647 107.141 3.38376 0.573949 -0.818891 1 0.5 0 1
283 1 72.637 28.6617 0 -6.629 107.928 0 133.968 336.988 45.3937 -31.9867 0.170214 0.985407 1 0.5 0 1
284 1 0.564868 18.179 0 0.564868 97.445 0 -88.5666 -1453.13 79.0015 -6.99035 0.98165 0.190693 1 0.5 0 1
285 1 68.6499 31.5488 0 68.6499 31.5488 0 -125.031 -398.737 -65.3063 209.302 0.441112 0.897452 1 0.5 0 1