ITEM: TIMESTEP
230000
ITEM: NUMBER OF ATOMS
4000
ITEM: BOX BOUNDS pp pp pp
0.0000000000000000e+00 7.9266000000000005e+01
0.0000000000000000e+00 7.9266000000000005e+01
-5.0000000000000000e-01 5.0000000000000000e-01
ITEM: ATOMS id type x y z xu yu zu vx vy fx fy mux muy mu radius omegaz mass
1 1 1.19219 63.3921 0 80.4582 63.3921 0 -80.2154 536.019 -154.156 -50.7489 -0.785834 -0.618437 1 0.5 0 1
2 1 30.4707 70.3526 0 30.4707 -8.91337 0 -112.456 -174.046 53.5473 -15.2495 0.791717 0.610888 1 0.5 0 1
3 1 24.8848 39.3315 0 24.8848 -39.9345 0 -132.789 -517.521 80.3752 32.7227 -0.995412 0.0956809 1 0.5 0 1
4 1 41.3453 72.1103 0 41.3453 72.1103 0 37.5333 809.104 23.1524 -42.0144 -0.309629 -0.950857 1 0.5 0 1
5 1 4.75854 30.0995 0 4.75854 30.0995 0 380.297 607.424 168.689 -184.606 -0.746072 -0.665865 1 0.5 0 1
6 1 71.8774 27.1184 0 -7.38864 27.1184 0 37.1631 -12.1524 -2.65307 -23.6657 -0.767578 0.640955 1 0.5 0 1
7 1 68.2103 47.3349 0 68.2103 47.3349 0 -915.022 165.068 -260.677 127.509 0.816993 0.576648 1 0.5 0 1
8 1 21.9492 45.3025 0 21.9492 -33.9635 0 -241.497 -654.873 -141.128 230.288 0.205956 -0.978561 1 0.5 0 1
9 1 70.5889 23.6313 0 70.5889 23.6313 0 383.865 -75.0608 -138.1 135.461 -0.279161 -0.960244 1 0.5 0 1
10 1 17.3714 46.7048 0 17.3714 46.7048 0 956.858 243.78 -103.455 67.3297 -0.599053 -0.80071 1 0.5 0 1
11 1 35.3169 77.9797 0 -43.9491 -1.28633 0 199.524 -717.672 10.8225 -58.1192 -0.453975 -0.891014 1 0.5 0 1
12 1 1.9387 20.3201 0 81.2047 99.5861 0 -189.291 -579.577 84.3034 -7.6486 0.155834 0.987783 1 0.5 0 1
13 1 55.3638 5.03034 0 55.3638 5.03034 0 -811.707 63.5012 63.0495 -53.8726 0.754645 -0.656133 1 0.5 0 1
14 1 64.8716 9.31229 0 -93.6604 9.31229 0 417.967 237.688 6.53388 -90.9786 -0.929255 0.369438 1 0.5 0 1
15 1 10.5303 31.513 0 10.5303 31.513 0 -60.4683 49.4145 -85.7219 104.299 0.31333 0.949644 1 0.5 0 1
16 1 23.573 50.967 0 -55.693 -28.299 0 619.087 197.455 -29.0347 -63.4989 -0.998445 -0.0557468 1 0.5 0 1
17 1 19.4898 23.827 0 98.7558 103.093 0 -735.505 527.611 43.5335 90.0269 0.435335 0.900269 1 0.5 0 1
18 1 15.7103 51.0915 0 15.7103 51.0915 0 -40.5681 -308.613 16.5673 14.2693 0.933948 0.357408 1 0.5 0 1
19 1 5.70495 39.3153 0 5.70495 39.3153 0 787.567 -657.512 -241.833 207.581 0.116212 0.993224 1 0.5 0 1
20 1 13.8274 53.0267 0 13.8274 53.0267 0 70.5977 7.55719 1.40625 196.869 0.60652 -0.795068 1 0.5 0 1
21 1 7.79777 25.2442 0 7.79777 25.2442 0 653.791 -473.393 -38.8508 -137.235 -0.903808 0.427939 1 0.5 0 1
22 1 77.9899 19.1953 0 77.9899 19.1953 0 333.128 -595.536 -50.2245 44.0344 0.440325 -0.897839 1 0.5 0 1
23 1 21.5224 8.5122 0 100.788 8.5122 0 -469.673 483.572 -39.6315 86.1736 -0.493424 0.869789 1 0.5 0 1
24 1 66.2224 55.5558 0 66.2224 -23.7102 0 -214.661 -322.891 -55.9241 105.41 0.987527 -0.157451 1 0.5 0 1
25 1 35.1075 44.6463 0 -44.1585 -34.6197 0 -613.97 -0.254397 19.4476 -98.0907 0.194476 -0.980907 1 0.5 0 1
26 1 49.2807 9.68772 0 49.2807 -69.5783 0 464.78 -3.36307 -11.1924 -99.3717 -0.111924 -0.993717 1 0.5 0 1
27 1 75.9928 11.3676 0 -3.27325 90.6336 0 209.337 517.799 -48.7575 -31.8117 -0.308814 0.951122 1 0.5 0 1
28 1 27.0727 63.0077 0 27.0727 63.0077 0 -128.549 778.311 -1.08243 -50.311 -0.901737 0.432286 1 0.5 0 1
29 1 75.4824 36.6004 0 -3.78364 36.6004 0 -171.182 210.533 414.18 -165.969 -0.172618 0.984989 1 0.5 0 1
30 1 60.8045 17.6797 0 60.8045 96.9457 0 378.969 961.258 -113.389 -42.4209 0.942828 0.333279 1 0.5 0 1
31 1 77.308 23.975 0 -1.95796 23.975 0 -285.602 506.043 -184.228 31.9723 -0.999976 0.00698935 1 0.5 0 1
32 1 13.8242 29.6531 0 13.8242 29.6531 0 46.3008 -156.527 -53.5247 -9.46001 -0.966394 -0.257066 1 0.5 0 1
33 1 64.6645 56.8142 0 64.6645 -22.4518 0 -70.5855 -87.7878 -78.1736 -99.0243 0.996533 0.0831984 1 0.5 0 1
34 1 7.05048 42.6089 0 86.3165 42.6089 0 1078.46 -644.29 -6.76779 74.1627 -0.946953 0.321371 1 0.5 0 1
35 1 23.2835 66.93 0 -55.9825 66.93 0 86.049 -134.264 -34.0034 88.6906 -0.827399 0.561615 1 0.5 0 1
36 1 60.8565 55.3318 0 60.8565 -23.9342 0 277.474 -51.5148 63.4465 95.3852 0.994849 -0.101364 1 0.5 0 1
37 1 71.0311 40.381 0 71.0311 40.381 0 251.588 837.335 30.5449 -328.64 -0.144678 0.989479 1 0.5 0 1
38 1 30.075 4.13151 0 109.341 83.3975 0 -156.636 -218.387 42.5922 -59.8459 0.986119 0.166037 1 0.5 0 1
39 1 54.0931 3.16406 0 54.0931 -76.1019 0 668.35 -576.015 67.6212 -14.2658 0.805577 -0.592491 1 0.5 0 1
40 1 14.1427 55.0859 0 -65.1233 55.0859 0 -495.633 142.59 -39.2315 8.98169 0.540077 0.841616 1 0.5 0 1
41 1 69.6598 50.5984 0 69.6598 50.5984 0 -1688.72 477.449 296.612 -167.712 -0.911007 0.412392 1 0.5 0 1
42 1 74.4732 57.7786 0 -4.79277 57.7786 0 184.085 757.392 -73.8341 -100.91 -0.258013 -0.966141 1 0.5 0 1
43 1 27.8953 9.23794 0 -51.3707 88.5039 0 180.478 -571.265 -39.0944 59.2797 -0.998511 -0.0545501 1 0.5 0 1
44 1 65.725 19.4556 0 65.725 98.7216 0 -484.083 -178.707 187.53 30.6694 -0.0679748 -0.997687 1 0.5 0 1
45 1 38.4871 73.0875 0 38.4871 -6.17852 0 -11.8664 -629.845 42.5343 -52.367 -0.749188 -0.662357 1 0.5 0 1
46 1 8.36128 39.4695 0 8.36128 39.4695 0 -141.589 -63.148 42.4483 74.3625 0.0858454 0.996308 1 0.5 0 1
47 1 58.6449 58.4488 0 58.6449 -20.8172 0 -454.73 -69.4728 -44.0435 24.9086 0.977242 -0.212128 1 0.5 0 1
48 1 13.2284 43.508 0 13.2284 43.508 0 847.783 -81.8394 -12.6433 90.317 -0.871422 -0.490533 1 0.5 0 1
49 1 5.73181 11.7021 0 84.9978 90.9681 0 -122.121 90.5634 11.8939 61.4474 -0.999837 0.0180774 1 0.5 0 1
50 1 48.7279 26.669 0 48.7279 26.669 0 100.9 -596.79 -142.412 132.491 -0.70251 0.711674 1 0.5 0 1
51 1 77.1944 13.1055 0 -2.07164 13.1055 0 -113.128 157.082 -109.973 -92.4763 -0.996419 0.0845535 1 0.5 0 1
52 1 6.52986 29.9308 0 85.7959 29.9308 0 -640.505 -27.8319 3.96493 -37.9937 -0.189653 0.981851 1 0.5 0 1
53 1 12.1276 51.9745 0 12.1276 131.24 0 -462.928 86.1716 -4.1798 178.797 -0.522677 -0.852531 1 0.5 0 1
54 1 55.0919 26.9379 0 55.0919 26.9379 0 -114.675 727.586 83.7138 17.5393 -0.129645 -0.99156 1 0.5 0 1
55 1 44.3903 21.2361 0 123.656 100.502 0 -633.33 45.9139 62.3536 41.8493 0.840132 0.542381 1 0.5 0 1
56 1 17.9519 42.2383 0 17.9519 42.2383 0 -538.369 -505.937 -66.6943 60.6033 0.187259 0.982311 1 0.5 0 1
57 1 39.307 74.8773 0 39.307 74.8773 0 -75.5406 -944.826 -37.3291 46.5503 -0.578192 0.815901 1 0.5 0 1
58 1 70.2932 24.6521 0 -8.97277 24.6521 0 616.863 274.577 -68.3512 -187.135 -0.520375 0.853938 1 0.5 0 1
59 1 54.0023 31.5356 0 54.0023 31.5356 0 -243.035 -408.56 -70.5898 -68.7986 -0.682631 0.730763 1 0.5 0 1
60 1 57.735 38.4663 0 57.735 38.4663 0 -15.7848 -717.881 81.8346 -50.7644 -0.321194 -0.947013 1 0.5 0 1
61 1 60.1964 42.1157 0 60.1964 42.1157 0 -390.715 785.059 39.8393 -52.0879 0.800818 0.598908 1 0.5 0 1
62 1 27.2068 11.629 0 106.473 11.629 0 145.45 -157.712 63.7749 17.2333 0.907496 0.420061 1 0.5 0 1
63 1 14.5718 2.46224 0 -64.6942 2.46224 0 930.509 -431.449 -51.7972 -85.5397 -0.517972 -0.855397 1 0.5 0 1
64 1 35.5068 18.4525 0 114.773 97.7185 0 87.5432 343.128 95.3041 29.472 0.954943 0.29679 1 0.5 0 1
65 1 48.0434 23.7529 0 127.309 103.019 0 262.602 57.894 14.1976 -91.6776 0.980872 0.194655 1 0.5 0 1
66 1 17.125 38.4101 0 96.391 117.676 0 -225.383 313.915 -32.6804 -12.0715 0.496006 0.868319 1 0.5 0 1
67 1 55.6014 40.4485 0 55.6014 40.4485 0 802.514 -605.151 71 -115.228 0.461446 -0.887168 1 0.5 0 1
68 1 23.5491 43.0609 0 23.5491 43.0609 0 -305.677 336.683 -2.98491 -0.677607 -0.605587 -0.795779 1 0.5 0 1
69 1 18.2061 52.9209 0 18.2061 52.9209 0 -229.972 -47.6554 -14.4168 29.3321 0.872949 -0.487812 1 0.5 0 1
70 1 50.3406 35.5911 0 50.3406 114.857 0 787.57 -427.337 88.4903 -148.903 0.960497 -0.27829 1 0.5 0 1
71 1 67.761 78.4686 0 67.761 -0.797363 0 761.489 3.92833 89.7683 44.0643 0.897683 0.440643 1 0.5 0 1
72 1 3.55505 54.7346 0 3.55505 54.7346 0 30.2769 2.7496 65.268 82.1338 -0.923977 -0.382448 1 0.5 0 1
73 1 12.7539 29.5121 0 12.7539 29.5121 0 -228.009 -25.2117 -16.2576 -44.4824 -0.999235 -0.0391111 1 0.5 0 1
74 1 66.4317 11.2142 0 66.4317 90.4802 0 651.588 535.83 -8.85339 -116.007 -0.638234 0.769843 1 0.5 0 1
75 1 77.0142 35.4042 0 -2.2518 35.4042 0 107.409 -103.463 -36.2537 -116.213 -0.0677132 0.997705 1 0.5 0 1
76 1 49.7582 28.1808 0 -29.5078 28.1808 0 298.6 -482.258 143.53 13.3378 0.130401 0.991461 1 0.5 0 1
77 1 0.614145 32.0922 0 0.614145 32.0922 0 -54.0931 -237.815 11.2849 327.882 0.766417 0.642344 1 0.5 0 1
78 1 29.9971 72.3408 0 29.9971 72.3408 0 550.675 -18.2891 55.1815 -11.8015 0.871037 0.491218 1 0.5 0 1
79 1 5.57689 66.3672 0 5.57689 66.3672 0 -490.065 901.889 -48.9627 -64.8749 -0.988521 -0.151086 1 0.5 0 1
80 1 3.28137 24.5799 0 3.28137 -54.6861 0 79.7938 -398.105 -61.7565 -11.1222 0.298564 0.95439 1 0.5 0 1
81 1 48.3629 33.5703 0 127.629 33.5703 0 -168.929 -274.716 164.096 -45.9051 0.0602888 -0.998181 1 0.5 0 1
82 1 2.35728 36.2492 0 2.35728 36.2492 0 -245.707 -440.961 239.17 189.534 0.999856 -0.0169818 1 0.5 0 1
83 1 21.4127 26.6611 0 100.679 105.927 0 1369.98 791.781 83.8454 54.4972 0.838454 0.544972 1 0.5 0 1
84 1 77.5879 42.6006 0 -1.67806 42.6006 0 -264.31 434.334 -25.4596 -87.4586 -0.930596 -0.366049 1 0.5 0 1
85 1 26.4381 53.4228 0 26.4381 -25.8432 0 -170.581 226.017 96.402 26.583 0.96402 0.26583 1 0.5 0 1
86 1 13.2905 37.546 0 13.2905 37.546 0 -139.175 -316.27 22.5977 -78.3956 -0.947742 0.319038 1 0.5 0 1
87 1 12.683 39.3121 0 12.683 39.3121 0 -693.862 374.299 215.371 -11.7567 -0.940258 -0.340464 1 0.5 0 1
88 1 28.5874 8.32779 0 28.5874 8.32779 0 -266.654 -253.225 2.14947 -9.70968 -0.165707 -0.986175 1 0.5 0 1
89 1 27.3432 50.48 0 27.3432 50.48 0 -37.8148 -325.334 41.1068 -76.1953 0.147786 -0.989019 1 0.5 0 1
90 1 5.82597 35.9093 0 5.82597 35.9093 0 506.568 704.666 -85.8479 -99.4411 -0.99934 -0.0363348 1 0.5 0 1
91 1 17.6551 56.334 0 17.6551 -22.932 0 -370.9 706.141 59.6578 1.82934 -0.363589 -0.931559 1 0.5 0 1
92 1 3.03112 51.846 0 3.03112 51.846 0 464.828 -117.049 -283.872 -65.2308 -0.797627 0.603151 1 0.5 0 1
93 1 2.69819 42.5431 0 2.69819 42.5431 0 284.366 1060.99 -103.459 -58.679 -0.380456 0.924799 1 0.5 0 1
94 1 71.5457 34.272 0 71.5457 34.272 0 -1438.78 -136.557 174.122 -42.0902 0.998893 -0.0470492 1 0.5 0 1
95 1 68.0001 46.3742 0 68.0001 46.3742 0 -332.893 270.004 207.551 25.1737 0.651534 0.75862 1 0.5 0 1
96 1 55.4125 39.4612 0 55.4125 39.4612 0 136.487 79.628 -20.4499 23.9849 0.79292 0.609325 1 0.5 0 1
97 1 43.6652 19.7492 0 43.6652 19.7492 0 653.099 -497.808 26.8009 -96.3417 0.268009 -0.963417 1 0.5 0 1
98 1 60.3526 72.0838 0 60.3526 72.0838 0 -86.9828 1384.44 31.7226 -12.0812 -0.526339 -0.850275 1 0.5 0 1
99 1 44.206 41.6 0 44.206 -37.666 0 -120.995 240.835 -68.0965 -30.7392 0.988457 -0.151504 1 0.5 0 1
100 1 73.841 41.3033 0 73.841 41.3033 0 -188.84 -524.206 8.86065 -33.0834 -0.300206 -0.953874 1 0.5 0 1
101 1 50.372 44.8298 0 50.372 -34.4362 0 -576.508 -712.901 62.413 189.125 0.756896 -0.653535 1 0.5 0 1
102 1 0.412312 39.8929 0 0.412312 39.8929 0 -684.477 1061.99 126.901 -380.976 -0.849649 0.527349 1 0.5 0 1
103 1 40.2482 28.5487 0 -39.0178 107.815 0 -28.1386 468.499 -38.6586 87.0595 -0.577767 0.816202 1 0.5 0 1
104 1 54.8956 41.1115 0 54.8956 120.378 0 632.912 137.436 -74.6485 -97.3733 0.944991 0.327096 1 0.5 0 1
105 1 60.4991 12.4742 0 -18.7669 12.4742 0 -566.742 1167.82 119.145 45.4499 0.871467 0.490455 1 0.5 0 1
106 1 77.0951 11.09 0 -2.17088 11.09 0 -101.594 -670.68 -84.6307 -95.3382 -0.502966 -0.864306 1 0.5 0 1
107 1 62.9978 34.8413 0 62.9978 34.8413 0 -423.95 106.196 -120.301 62.7091 -0.957263 -0.289218 1 0.5 0 1
108 1 1.05427 33.9795 0 1.05427 113.246 0 1228.39 -453.728 48.1183 -44.3581 0.954367 -0.298636 1 0.5 0 1
109 1 40.5902 67.3911 0 -38.6758 67.3911 0 -367.742 -534.347 45.3339 25.6049 0.286764 0.958001 1 0.5 0 1
110 1 49.0882 30.8961 0 49.0882 30.8961 0 207.914 -579.972 18.3806 7.57236 0.302928 0.953014 1 0.5 0 1
111 1 63.1913 2.74362 0 63.1913 82.0096 0 -733.823 -143.013 66.0119 75.1161 0.660119 0.751161 1 0.5 0 1
112 1 10.9438 46.3108 0 10.9438 46.3108 0 -131.483 426.831 96.1969 52.901 -0.580517 -0.814248 1 0.5 0 1
113 1 27.1144 61.7222 0 -52.1516 61.7222 0 278.776 621.908 -60.2469 41.8046 -0.225847 0.974163 1 0.5 0 1
114 1 54.0748 51.807 0 54.0748 51.807 0 524.899 -220.589 183.85 -28.3034 0.942503 -0.334197 1 0.5 0 1
115 1 76.8811 75.8243 0 -2.38486 -3.44165 0 -451.543 143.914 99.8942 4.59916 0.998942 0.0459916 1 0.5 0 1
116 1 23.1438 55.3635 0 23.1438 -23.9025 0 847.688 -354.528 18.2505 -57.6163 -0.325934 -0.945393 1 0.5 0 1
117 1 25.4602 38.3325 0 25.4602 38.3325 0 -130.055 206.107 93.5877 -97.8913 0.398665 -0.917097 1 0.5 0 1
118 1 56.1378 38.8034 0 56.1378 38.8034 0 578.795 535.757 -199.109 20.4275 0.973238 -0.229799 1 0.5 0 1
119 1 11.671 75.0149 0 90.937 -4.2511 0 -350.43 -62.438 72.2088 68.9722 0.719923 0.694054 1 0.5 0 1
120 1 46.6334 70.4219 0 125.899 -8.84413 0 966.099 -206.723 127.123 -34.7602 0.129688 -0.991555 1 0.5 0 1
121 1 76.7788 74.6951 0 -81.7532 -4.57087 0 386.978 -412.769 -72.2514 -17.9061 -0.849195 -0.52808 1 0.5 0 1
122 1 58.8103 18.2097 0 58.8103 97.4757 0 174.446 -18.3728 -95.9635 -134.746 -0.274606 0.961557 1 0.5 0 1
123 1 76.625 28.9712 0 -2.64104 28.9712 0 680.762 595.994 -127.153 -115.405 -0.827838 0.560967 1 0.5 0 1
124 1 19.8697 41.2264 0 19.8697 41.2264 0 -172.75 100.088 -34.1298 -123.205 -0.0479925 -0.998848 1 0.5 0 1
125 1 68.3986 25.2819 0 68.3986 25.2819 0 -573.143 -291.213 -116.5 -20.64 0.612019 -0.790843 1 0.5 0 1
126 1 8.78289 31.8154 0 88.0489 111.081 0 -623.746 1.74368 19.0053 -29.7554 0.198534 0.980094 1 0.5 0 1
127 1 59.6202 28.0449 0 59.6202 107.311 0 303.094 119.744 -25.2379 251.654 0.89321 0.44964 1 0.5 0 1
128 1 6.28773 23.7793 0 -72.9783 23.7793 0 73.0989 -808.265 -102.786 110.834 -0.978989 -0.203911 1 0.5 0 1
129 1 67.9347 55.315 0 67.9347 -23.951 0 170.437 544.378 291.663 114.762 -0.286493 -0.958082 1 0.5 0 1
130 1 73.8912 53.8085 0 73.8912 -25.4575 0 4.73925 -734.157 -82.435 -83.678 0.333493 -0.942752 1 0.5 0 1
131 1 56.6997 16.711 0 -22.5663 95.977 0 -46.4227 533.235 -84.0726 15.9774 0.968907 0.247424 1 0.5 0 1
132 1 61.862 29.8881 0 -17.404 109.154 0 -304.649 -193.088 -7.54807 54.2111 0.277261 0.960795 1 0.5 0 1
133 1 41.9429 31.2422 0 41.9429 110.508 0 212.126 200.794 -38.2813 92.8512 -0.366722 0.930331 1 0.5 0 1
134 1 16.1203 38.832 0 16.1203 38.832 0 879.033 -179.515 -12.7693 -77.7232 -0.991957 -0.126578 1 0.5 0 1
135 1 14.5586 48.262 0 14.5586 127.528 0 -481.274 -563.66 58.4058 122.718 0.225876 0.974156 1 0.5 0 1
136 1 26.3383 9.88967 0 26.3383 89.1557 0 435.23 29.8319 88.8847 -42.8882 0.999605 0.0281029 1 0.5 0 1
137 1 51.6905 22.6092 0 130.956 101.875 0 89.1083 -226.792 48.1736 11.6176 0.0256532 0.999671 1 0.5 0 1
138 1 59.5479 68.3312 0 -19.7181 -10.9348 0 -605.629 385.901 -84.9947 -52.6869 -0.849947 -0.526869 1 0.5 0 1
139 1 44.0389 44.5116 0 44.0389 -34.7544 0 759.3 -361.393 18.504 -1.54518 0.876817 -0.480825 1 0.5 0 1
140 1 32.6448 0.0636743 0 32.6448 0.0636743 0 -345.312 -512.882 -19.4148 -23.5341 -0.989883 -0.141888 1 0.5 0 1
141 1 8.84155 54.2028 0 8.84155 54.2028 0 -841.992 229.715 -11.9558 -61.0797 0.996605 0.0823329 1 0.5 0 1
142 1 16.0999 72.7108 0 16.0999 72.7108 0 -940.366 -144.608 -98.8198 15.3184 -0.988198 0.153184 1 0.5 0 1
143 1 10.6953 32.5642 0 10.6953 111.83 0 30.2173 -5.63573 94.985 -64.4302 -1 -0.000781341 1 0.5 0 1
144 1 30.1616 48.919 0 30.1616 -30.347 0 -434.938 -147.654 -89.1409 45.32 -0.891409 0.4532 1 0.5 0 1
145 1 74.6874 16.218 0 74.6874 95.484 0 -271.68 209.389 -65.3942 2.03331 0.14759 -0.989049 1 0.5 0 1
146 1 58.357 61.2138 0 58.357 -18.0522 0 112.747 533.309 -113.583 -56.3392 0.78737 -0.616481 1 0.5 0 1
147 1 79.092 68.1339 0 79.092 -11.1321 0 -361.632 375.393 -172.207 -124.656 0.595238 -0.80355 1 0.5 0 1
148 1 31.0314 38.1988 0 110.297 38.1988 0 -197.665 123.203 62.4891 -32.3786 0.55762 0.830096 1 0.5 0 1
149 1 73.9624 28.885 0 73.9624 108.151 0 -45.077 711.111 91.4309 -65.982 0.0292116 -0.999573 1 0.5 0 1
150 1 68.7211 33.251 0 -10.5449 33.251 0 -219.328 76.0179 30.396 41.0672 0.231524 0.972829 1 0.5 0 1
151 1 2.60266 54.3751 0 81.8687 -24.8909 0 386.23 -180.898 -94.0288 167.466 0.915235 0.402919 1 0.5 0 1
152 1 38.768 22.7681 0 38.768 102.034 0 347.629 -238.869 2.89315 -6.40203 0.0242708 -0.999705 1 0.5 0 1
153 1 76.1851 57.5374 0 76.1851 57.5374 0 119.758 670.12 63.7735 -44.8892 0.9404 -0.34007 1 0.5 0 1
154 1 3.25964 46.374 0 3.25964 46.374 0 -100.931 -227.665 53.4249 36.7962 -0.288204 -0.957569 1 0.5 0 1
155 1 63.3713 63.1334 0 -95.1607 -16.1326 0 -876.327 -713.779 -31.4879 -81.7389 0.582862 -0.812571 1 0.5 0 1
156 1 74.7645 46.009 0 74.7645 46.009 0 -218.822 633.021 -225.275 -41.7677 -0.995604 -0.0936587 1 0.5 0 1
157 1 6.58267 21.4782 0 6.58267 21.4782 0 310.756 -447.538 129 34.5488 -0.249566 0.968358 1 0.5 0 1
158 1 68.59 36.7511 0 -10.676 36.7511 0 583.801 -515.591 -149.541 251.265 -0.853929 -0.520389 1 0.5 0 1
159 1 42.5946 66.6257 0 42.5946 66.6257 0 -141.066 -216.609 51.2036 -21.267 -0.904058 -0.427409 1 0.5 0 1
160 1 17.3804 19.713 0 17.3804 19.713 0 -208.301 132.895 -99.5631 12.7428 -0.962099 -0.2727 1 0.5 0 1
161 1 25.5412 67.5759 0 25.5412 -11.6901 0 510.72 190.027 47.9543 6.21898 0.795568 -0.605865 1 0.5 0 1
162 1 6.16611 49.5666 0 6.16611 49.5666 0 911.663 173.315 -33.5355 -47.6912 0.20741 -0.978254 1 0.5 0 1
163 1 64.5325 46.2499 0 64.5325 46.2499 0 -1124.96 505.818 161.468 -61.1967 -0.803445 -0.59538 1 0.5 0 1
164 1 45.3804 24.1358 0 45.3804 24.1358 0 371.131 -900.681 146.916 -58.489 0.90405 -0.427426 1 0.5 0 1
165 1 28.0118 54.9443 0 28.0118 -24.3217 0 61.6293 204.062 111.681 36.0486 -0.645863 0.763453 1 0.5 0 1
166 1 11.2324 41.6623 0 11.2324 41.6623 0 203.942 214.154 69.5233 -98.3342 -0.927088 0.374844 1 0.5 0 1
167 1 67.4348 25.4742 0 67.4348 25.4742 0 301.181 419.355 51.247 -230.783 0.890385 -0.455209 1 0.5 0 1
168 1 69.8459 7.49356 0 -9.42006 86.7596 0 422.134 299.723 -83.1827 -55.5035 -0.831827 -0.555035 1 0.5 0 1
169 1 1.09392 71.4252 0 1.09392 150.691 0 840.272 469.689 77.1527 174.689 -0.964311 -0.264772 1 0.5 0 1
170 1 16.0969 44.2851 0 95.3629 123.551 0 -516.445 -196.182 10.6043 71.2389 0.129326 0.991602 1 0.5 0 1
171 1 47.8947 27.2782 0 127.161 27.2782 0 22.0932 -765.581 -0.673407 -6.95469 0.996632 -0.0820029 1 0.5 0 1
172 1 7.183 55.3119 0 7.183 -23.9541 0 -22.2973 925.161 -35.9952 -106.165 -0.87354 -0.486753 1 0.5 0 1
173 1 19.4228 51.5296 0 19.4228 -27.7364 0 -245.986 506.655 -54.0115 -4.79257 -0.52179 -0.853074 1 0.5 0 1
174 1 8.69465 50.023 0 8.69465 50.023 0 -308.355 540.888 88.8533 -55.0846 -0.983712 0.17975 1 0.5 0 1
175 1 78.8977 12.7723 0 -0.368339 12.7723 0 -608.462 71.6595 58.8462 -0.968331 -0.905687 -0.423946 1 0.5 0 1
176 1 10.251 47.9241 0 10.251 47.9241 0 -183.357 632.202 40.2424 8.01169 -0.0763792 0.997079 1 0.5 0 1
177 1 8.58663 61.2891 0 8.58663 61.2891 0 367.533 312.107 -23.9273 -37.475 -0.130171 -0.991492 1 0.5 0 1
178 1 59.4474 26.0647 0 -19.8186 105.331 0 141.532 -278.782 26.8851 143.716 0.205149 0.978731 1 0.5 0 1
179 1 3.93544 52.2139 0 3.93544 -27.0521 0 -559.362 -694.34 -50.817 56.7688 -0.162498 -0.986709 1 0.5 0 1
180 1 75.1163 39.1018 0 75.1163 39.1018 0 413.398 -414.4 -52.3742 50.5864 -0.87611 0.482112 1 0.5 0 1
181 1 60.4516 18.6938 0 60.4516 18.6938 0 784.471 61.9959 45.5015 -133.063 -0.500393 0.865798 1 0.5 0 1
182 1 61.7032 74.2034 0 -17.5628 74.2034 0 -762.786 -153.485 -97.6785 21.4223 -0.976785 0.214223 1 0.5 0 1
183 1 59.7642 53.9933 0 59.7642 -25.2727 0 -530.231 -468.089 121.276 31.8779 -0.0726126 0.99736 1 0.5 0 1
184 1 64.9002 40.0065 0 64.9002 40.0065 0 259.552 332.371 -63.5225 -128.738 -0.854378 0.519652 1 0.5 0 1
185 1 12.0155 34.9655 0 12.0155 34.9655 0 669.143 895.065 76.511 85.7838 0.198217 -0.980158 1 0.5 0 1
186 1 1.13138 3.62756 0 1.13138 82.8936 0 336.464 212.174 -90.7305 42.0472 -0.907305 0.420472 1 0.5 0 1
187 1 58.2021 32.2296 0 -21.0639 111.496 0 -325.412 523.834 119.713 107.783 0.671568 0.740943 1 0.5 0 1
188 1 31.6569 77.497 0 110.923 77.497 0 -34.2074 -8.76072 -30.5049 39.9991 0.772077 0.635529 1 0.5 0 1
189 1 25.9931 39.2336 0 25.9931 39.2336 0 -462.156 461.086 -33.7631 134.326 -0.192729 0.981252 1 0.5 0 1
190 1 23.5717 53.2757 0 -55.6943 53.2757 0 682.378 187.275 -64.0737 -27.0201 -0.977419 -0.211309 1 0.5 0 1
191 1 64.8634 16.0083 0 144.129 16.0083 0 -99.8031 -95.6721 173.853 -18.6926 0.648166 -0.761499 1 0.5 0 1
192 1 60.442 34.8755 0 60.442 34.8755 0 623.548 238.598 167.446 -63.8813 0.74509 -0.666964 1 0.5 0 1
193 1 33.0705 47.4382 0 -46.1955 47.4382 0 349.396 30.7616 -24.6495 65.5283 0.67181 0.740723 1 0.5 0 1
194 1 20.7523 41.8297 0 20.7523 41.8297 0 -315.418 138.694 16.1195 14.3512 0.440901 -0.897556 1 0.5 0 1
195 1 55.9655 27.4537 0 55.9655 27.4537 0 571.041 529.1 -39.2991 -147.764 -0.149697 0.988732 1 0.5 0 1
196 1 60.2833 38.4755 0 60.2833 38.4755 0 -766.622 -307.427 104.475 -39.8659 -0.206937 -0.978354 1 0.5 0 1
197 1 71.2202 59.4639 0 -8.04579 59.4639 0 429.558 93.9373 -165.472 -143.102 0.228048 -0.97365 1 0.5 0 1
198 1 74.9649 42.5482 0 74.9649 42.5482 0 -647.219 -31.3162 190.102 118.79 0.0777904 0.99697 1 0.5 0 1
199 1 69.259 64.6438 0 -10.007 -14.6222 0 -96.5881 -420.259 74.0638 83.3369 -0.283378 -0.959008 1 0.5 0 1
200 1 70.2101 74.469 0 70.2101 74.469 0 280.434 -408.481 97.0683 24.0365 0.970683 0.240365 1 0.5 0 1
201 1 8.96684 12.1788 0 8.96684 12.1788 0 -273.649 619.751 -32.5777 94.5447 -0.325777 0.945447 1 0.5 0 1
202 1 57.4031 55.9318 0 -21.8629 -23.3342 0 -90.5406 349.706 -125.364 -181.235 -0.467295 -0.884101 1 0.5 0 1
203 1 38.1442 62.8855 0 -41.1218 62.8855 0 128.009 -220.497 -73.1569 -1.48596 -0.818027 0.57518 1 0.5 0 1
204 1 65.1844 61.9142 0 65.1844 -17.3518 0 -670.055 -284.141 -4.74849 -35.4794 -0.730519 -0.682892 1 0.5 0 1
205 1 11.4203 56.2501 0 11.4203 56.2501 0 97.6384 -556.93 68.6926 -151.2 -0.335083 0.942189 1 0.5 0 1
206 1 1.95096 55.9344 0 1.95096 -23.3316 0 -274.554 57.5154 116.629 -9.39197 -0.643458 0.765481 1 0.5 0 1
207 1 35.0613 71.2458 0 35.0613 71.2458 0 626.346 -790.741 19.1221 -20.7784 0.775738 -0.631056 1 0.5 0 1
208 1 10.9304 28.6452 0 10.9304 28.6452 0 -427.911 105.975 -47.5271 -4.03958 -0.923127 -0.384496 1 0.5 0 1
209 1 54.1152 24.4303 0 54.1152 103.696 0 466.862 180.395 68.7761 22.3913 0.038868 0.999244 1 0.5 0 1
210 1 65.9954 60.2195 0 -13.2706 60.2195 0 -305.829 -915.614 -120.339 115.43 -0.848809 -0.5287 1 0.5 0 1
211 1 62.33 40.0535 0 62.33 40.0535 0 989.383 -838.509 -21.5548 219.525 0.973882 -0.227056 1 0.5 0 1
212 1 9.86733 75.6446 0 168.399 -3.62143 0 -950.101 328.939 92.1726 38.7843 0.921726 0.387843 1 0.5 0 1
213 1 69.0263 62.5338 0 69.0263 62.5338 0 352.325 301.529 -140.313 177.088 -0.104402 0.994535 1 0.5 0 1
214 1 61.1626 22.1874 0 61.1626 101.453 0 -109.203 -684.277 -52.1758 -34.9873 -0.649119 -0.760687 1 0.5 0 1
215 1 55.7533 57.1966 0 55.7533 -22.0694 0 1247.46 21.2207 16.3611 18.4753 0.56144 -0.827517 1 0.5 0 1
216 1 20.5425 42.9298 0 20.5425 122.196 0 637.845 -90.7828 38.4794 -57.1584 0.204043 0.978962 1 0.5 0 1
217 1 18.9485 17.9127 0 98.2145 17.9127 0 -1331.6 -923.216 -14.4544 98.9498 -0.144544 0.989498 1 0.5 0 1
218 1 48.6986 46.4504 0 48.6986 46.4504 0 106.209 222.857 15.4528 49.8543 0.417221 -0.908805 1 0.5 0 1
219 1 54.1359 41.7024 0 54.1359 41.7024 0 -283.842 1155.42 24.377 -0.221267 -0.685907 -0.727689 1 0.5 0 1
220 1 29.9833 38.6067 0 29.9833 -40.6593 0 -822.458 80.2496 21.8043 -97.5939 0.218043 -0.975939 1 0.5 0 1
221 1 34.7759 58.3838 0 34.7759 137.65 0 740.42 78.0248 -47.7015 69.1539 -0.686163 0.727447 1 0.5 0 1
222 1 38.9898 60.4154 0 38.9898 -18.8506 0 -876.625 475.319 -23.7818 97.131 -0.237818 0.97131 1 0.5 0 1
223 1 73.424 34.9533 0 -5.84202 34.9533 0 74.3918 69.376 155.229 -16.9601 -0.192876 0.981223 1 0.5 0 1
224 1 75.5478 59.113 0 -3.71816 59.113 0 293.631 -351.654 133.441 171.905 0.86773 -0.497036 1 0.5 0 1
225 1 25.6812 65.7697 0 104.947 -13.4963 0 -65.0194 -115.766 38.2496 -64.1124 0.914136 -0.405408 1 0.5 0 1
226 1 16.7172 63.2902 0 16.7172 -15.9758 0 -367.435 -131.828 -83.6431 54.8072 -0.836431 0.548072 1 0.5 0 1
227 1 2.98693 34.7425 0 82.2529 34.7425 0 78.0455 -47.1656 -113.672 20.5496 -0.966028 -0.258437 1 0.5 0 1
228 1 23.515 32.7397 0 -55.751 32.7397 0 -174.446 -809.836 -32.1398 -37.7817 -0.711679 -0.702505 1 0.5 0 1
229 1 53.3366 37.763 0 53.3366 37.763 0 187.249 23.9196 -280.111 151.556 0.994793 -0.10192 1 0.5 0 1
230 1 53.8453 36.1676 0 53.8453 115.434 0 -576.835 120.919 -158.878 -139.572 -0.977292 0.211898 1 0.5 0 1
231 1 36.0854 12.4418 0 36.0854 91.7078 0 305.901 360.5 -47.5962 -14.867 -0.944235 0.329271 1 0.5 0 1
232 1 51.6369 29.0756 0 51.6369 -50.1904 0 21.0189 -393.121 -162.034 285.318 0.834542 -0.550944 1 0.5 0 1
233 1 7.95083 42.9983 0 7.95083 42.9983 0 -518.56 -275.098 267.32 66.4075 -0.908386 -0.418132 1 0.5 0 1
234 1 16.5789 51.7074 0 16.5789 -27.5586 0 334.865 -339.621 -159.773 -24.3972 -0.0361238 0.999347 1 0.5 0 1
235 1 24.087 0.96924 0 24.087 80.2352 0 -261.328 597.433 42.7892 90.383 0.427892 0.90383 1 0.5 0 1
236 1 31.6892 57.715 0 110.955 57.715 0 13.6665 68.6147 11.4926 -108.677 0.35856 -0.933507 1 0.5 0 1
237 1 60.1381 19.6586 0 60.1381 19.6586 0 -496.109 304.17 124.593 -165.205 0.311238 -0.950332 1 0.5 0 1
238 1 71.3522 16.6448 0 71.3522 95.9108 0 -202.861 431.676 28.9976 41.9003 0.0756654 0.997133 1 0.5 0 1
239 1 4.90906 39.9143 0 84.1751 39.9143 0 102.836 -235.246 228.972 5.05705 0.681295 0.732009 1 0.5 0 1
240 1 69.1017 11.4933 0 69.1017 11.4933 0 577.101 44.9054 81.1364 70.4175 0.679538 0.73364 1 0.5 0 1
241 1 50.1822 34.5305 0 50.1822 34.5305 0 292.239 -1218.48 -250.582 116.6 -0.954089 0.299524 1 0.5 0 1
242 1 1.6257 60.4351 0 80.8917 -18.8309 0 658.762 -536.512 87.4316 -40.3954 0.24161 -0.970373 1 0.5 0 1
243 1 33.3448 5.80286 0 -45.9212 85.0689 0 -266.3 -754.812 8.53122 -102.164 -0.0430741 -0.999072 1 0.5 0 1
244 1 57.4341 22.1161 0 57.4341 101.382 0 -177.279 136.752 56.0364 117.914 0.959364 0.28217 1 0.5 0 1
245 1 57.1064 48.3658 0 57.1064 48.3658 0 54.2757 137.825 73.8548 13.1994 0.630811 0.775936 1 0.5 0 1
246 1 50.8227 38.5693 0 50.8227 38.5693 0 -343.111 127.548 134.34 131.958 0.268205 -0.963362 1 0.5 0 1
247 1 68.1772 51.8184 0 68.1772 -27.4476 0 385.868 -93.4823 -162.017 53.4056 -0.469319 -0.883029 1 0.5 0 1
248 1 21.5061 36.1071 0 -57.7599 115.373 0 -559.547 306.201 -88.0419 -1.4803 -0.902763 -0.430138 1 0.5 0 1
249 1 4.51803 18.9876 0 83.784 18.9876 0 -128.098 -344.013 25.9191 -7.79383 0.0579932 -0.998317 1 0.5 0 1
250 1 35.9559 78.8215 0 115.222 78.8215 0 -32.323 -117.371 -52.4722 -78.1278 0.800853 -0.598861 1 0.5 0 1
251 1 29.3189 2.86275 0 29.3189 161.395 0 -449.388 462.588 -9.23828 -88.6932 -0.967903 -0.251326 1 0.5 0 1
252 1 48.3316 5.07576 0 48.3316 84.3418 0 264.113 -307.413 -61.2111 138.746 0.587535 0.809199 1 0.5 0 1
253 1 27.7884 69.3858 0 27.7884 69.3858 0 -161.412 -898.026 42.308 -64.3911 0.543165 -0.839626 1 0.5 0 1
254 1 46.7194 33.7791 0 46.7194 113.045 0 228.159 330.853 -87.4632 -59.7385 0.49473 0.869047 1 0.5 0 1
255 1 3.35063 32.2516 0 82.6166 111.518 0 -481.594 377.695 230.318 -156.852 -0.767518 0.641028 1 0.5 0 1
256 1 70.0866 40.0479 0 -9.17935 40.0479 0 152.748 -487.765 183.328 -88.7775 0.762235 0.647301 1 0.5 0 1
257 1 9.47208 35.9626 0 9.47208 115.229 0 -700.588 -286.742 155.539 36.491 0.624443 -0.78107 1 0.5 0 1
258 1 10.2572 22.6373 0 10.2572 -56.6287 0 -585.198 -935.997 -17.3074 -41.6335 -0.902468 -0.430757 1 0.5 0 1
259 1 2.64656 67.6954 0 81.9126 67.6954 0 -1217.71 -118.77 31.9367 -0.570706 -0.942166 -0.335147 1 0.5 0 1
260 1 64.3585 66.9075 0 143.624 -12.3585 0 -168.797 -457.757 78.3942 -108.227 -0.172068 -0.985085 1 0.5 0 1
261 1 32.1171 78.4121 0 -47.1489 -0.853933 0 -513.992 -155.609 43.3172 -48.4013 -0.505391 -0.862891 1 0.5 0 1
262 1 57.5521 56.9643 0 136.818 -22.3017 0 314.952 315.201 -60.9481 43.1417 0.999959 -0.00907511 1 0.5 0 1
263 1 35.3879 54.9702 0 -43.8781 -24.2958 0 146.697 -721.56 56.9879 -82.1729 0.569879 -0.821729 1 0.5 0 1
264 1 63.5393 10.799 0 142.805 10.799 0 181.812 -204.388 -57.3219 11.3919 0.962424 -0.271552 1 0.5 0 1
265 1 54.2167 26.492 0 54.2167 105.758 0 241.854 -455.681 9.84649 -123.339 0.999819 0.0190052 1 0.5 0 1
266 1 56.4977 49.9317 0 56.4977 49.9317 0 -646.361 185.72 -16.7574 -0.109239 0.99923 0.0392236 1 0.5 0 1
267 1 74.2611 62.3809 0 -5.00493 -16.8851 0 -45.7885 -698.472 -41.8145 63.1824 -0.464014 -0.885828 1 0.5 0 1
268 1 66.7232 58.5796 0 66.7232 58.5796 0 784.507 847.74 -80.3398 89.1142 0.994462 -0.105095 1 0.5 0 1
269 1 15.2118 44.7954 0 94.4778 44.7954 0 502.848 -832.81 134.517 -10.7716 -0.360163 0.932889 1 0.5 0 1
270 1 47.5482 49.3304 0 126.814 -29.9356 0 -247.558 -273.118 -83.1135 -4.83418 -0.896484 0.443075 1 0.5 0 1
271 1 62.1582 19.2775 0 62.1582 19.2775 0 -736.518 -349.526 23.57 96.7639 0.971152 0.238463 1 0.5 0 1
272 1 52.9122 35.7929 0 52.9122 35.7929 0 503.792 -757.194 -57.8035 -139.815 -0.998934 -0.0461619 1 0.5 0 1
273 1 60.5884 47.7126 0 60.5884 47.7126 0 -606.458 3.9924 70.606 -124.993 0.988564 -0.1508 1 0.5 0 1
274 1 4.86621 76.8654 0 4.86621 -2.40056 0 50.748 645.424 -20.38 97.9013 -0.2038 0.979013 1 0.5 0 1
275 1 6.80235 58.9565 0 86.0683 -20.3095 0 -435.589 701.253 178.598 -37.9169 -0.834941 0.55034 1 0.5 0 1
276 1 59.5063 42.7824 0 59.5063 42.7824 0 -340.636 -46.2472 55.4682 230.311 0.976031 0.217632 1 0.5 0 1
277 1 8.02959 16.0278 0 -71.2364 16.0278 0 268.441 -162.663 -141.959 24.3632 -0.977763 0.209711 1 0.5 0 1
278 1 10.9043 29.7381 0 -68.3617 109.004 0 566.309 -275.762 36.5296 42.3557 -0.970234 0.242169 1 0.5 0 1
279 1 48.6308 71.5326 0 127.897 -7.73345 0 317.056 47.1744 -62.6536 -77.9392 -0.626536 -0.779392 1 0.5 0 1
280 1 13.2872 13.2876 0 13.2872 -65.9784 0 129.714 711.757 -47.2087 -50.3019 -0.764939 -0.644103 1 0.5 0 1
281 1 68.7829 54.7199 0 68.7829 54.7199 0 474.569 -287.653 -208.74 148.549 0.774223 -0.632913 1 0.5 0 1
282 1 48.6555 45.2082 0 48.6555 -34.0578 0 22.9554 239.499 79.9926 -109.066 0.656415 -0.7544 1 0.5 0 1
283 1 71.3079 28.7697 0 -7.95809 108.036 0 545.538 -366.56 -82.8749 -25.7932 0.283331 0.959022 1 0.5 0 1
284 1 7.76057 21.2283 0 7.76057 100.494 0 -619.666 23.7023 26.8749 30.4879 0.337699 0.941254 1 0.5 0 1
285 1 67.5893 31.9484 0 67.5893 31.9484 0 221.193 -945.3 -263.393 215.002 0.553051 0.833147 1 0.5 0 1