ITEM: TIMESTEP
270000
ITEM: NUMBER OF ATOMS
4000
ITEM: BOX BOUNDS pp pp pp
0.0000000000000000e+00 7.9266000000000005e+01
0.0000000000000000e+00 7.9266000000000005e+01
-5.0000000000000000e-01 5.0000000000000000e-01
ITEM: ATOMS id type x y z xu yu zu vx vy fx fy mux muy mu radius omegaz mass
1 1 0.6926 63.6854 0 79.9586 63.6854 0 -403.239 494.112 0.272549 -27.7533 -0.901324 -0.433145 1 0.5 0 1
2 1 43.6532 72.8673 0 43.6532 -6.39875 0 129.306 -17.9283 95.2545 28.0507 0.728892 0.684629 1 0.5 0 1
3 1 15.8814 34.6482 0 15.8814 -44.6178 0 329.109 -25.2003 -71.8679 86.422 -0.881468 0.472243 1 0.5 0 1
4 1 37.4184 64.2158 0 37.4184 64.2158 0 519.757 -314.796 -30.5407 -61.1208 -0.283105 -0.959089 1 0.5 0 1
5 1 3.14737 30.3071 0 3.14737 30.3071 0 -128.854 -480.957 56.274 137.155 -0.919064 0.394108 1 0.5 0 1
6 1 70.1721 28.3971 0 -9.09387 28.3971 0 722.819 231.937 -105.614 -113.562 -0.875107 -0.48393 1 0.5 0 1
7 1 67.4356 48.5544 0 67.4356 48.5544 0 46.0792 126.36 -187.258 -335.079 0.953631 0.300977 1 0.5 0 1
8 1 16.2587 37.7426 0 16.2587 -41.5234 0 -137.864 552.566 -193.203 -73.8536 -0.277658 -0.96068 1 0.5 0 1
9 1 69.6123 25.506 0 69.6123 25.506 0 -655.85 -384.954 178.678 -37.8561 0.037873 -0.999283 1 0.5 0 1
10 1 17.4684 49.5041 0 17.4684 49.5041 0 179.49 192.194 -61.5744 -79.2267 -0.890879 0.45424 1 0.5 0 1
11 1 42.0718 71.6045 0 -37.1942 -7.6615 0 -770.813 307.366 -81.2538 15.9475 -0.990917 0.134472 1 0.5 0 1
12 1 1.19766 21.3534 0 80.4637 100.619 0 46.1638 50.9625 -77.3746 -233.284 -0.574161 0.818742 1 0.5 0 1
13 1 73.6301 71.6344 0 73.6301 -7.63156 0 524.106 24.4549 -9.97385 -67.5667 0.153161 -0.988201 1 0.5 0 1
14 1 48.7122 22.7804 0 -109.82 22.7804 0 -708.218 -441.238 -14.6605 99.3115 -0.449797 0.893131 1 0.5 0 1
15 1 10.9481 33.0957 0 10.9481 33.0957 0 165.8 -694.336 -53.553 113.233 -0.729157 0.684346 1 0.5 0 1
16 1 19.3426 46.0309 0 -59.9234 -33.2351 0 -58.949 623.252 -29.3229 -36.7927 -0.912897 -0.40819 1 0.5 0 1
17 1 38.692 37.0676 0 117.958 116.334 0 -186.441 1217.77 24.1059 -53.3883 0.388958 0.921256 1 0.5 0 1
18 1 15.6261 53.5927 0 15.6261 53.5927 0 596.91 1017.26 -54.6387 31.1657 0.952044 -0.305961 1 0.5 0 1
19 1 4.39751 39.7631 0 4.39751 39.7631 0 130.251 -341.08 -136.058 -12.6025 0.988536 -0.150985 1 0.5 0 1
20 1 13.9219 54.8137 0 13.9219 54.8137 0 -475.661 -763.06 -10.2445 -6.55211 0.151942 -0.988389 1 0.5 0 1
21 1 5.2139 27.3643 0 5.2139 27.3643 0 -273.796 385.852 -24.9829 -10.5394 -0.984978 0.17268 1 0.5 0 1
22 1 2.50333 19.6088 0 81.7693 19.6088 0 -342.327 739.527 4.11183 57.5058 -0.201668 -0.979454 1 0.5 0 1
23 1 14.2923 29.3067 0 93.5583 29.3067 0 18.25 -193.461 73.1566 28.9774 0.415888 0.909416 1 0.5 0 1
24 1 66.0534 56.0754 0 66.0534 -23.1906 0 -263.24 20.2603 -52.0768 110.887 0.998514 -0.0544891 1 0.5 0 1
25 1 45.6746 32.1846 0 -33.5914 -47.0814 0 293.901 -254.607 131.272 107.298 0.969361 -0.24564 1 0.5 0 1
26 1 50.2983 60.3525 0 50.2983 -98.1795 0 18.7951 -232.135 -96.7095 -84.1697 -0.53748 -0.843277 1 0.5 0 1
27 1 73.8632 14.9969 0 -5.40283 94.2629 0 973.76 925.037 28.0509 -161.123 -0.594534 0.804071 1 0.5 0 1
28 1 23.967 3.92361 0 23.967 83.1896 0 195.283 199.731 77.9614 87.267 0.587034 0.809562 1 0.5 0 1
29 1 74.3768 37.5407 0 -4.88916 37.5407 0 -348.457 545.294 12.3095 -64.4694 0.113675 0.993518 1 0.5 0 1
30 1 62.5845 15.4178 0 62.5845 94.6838 0 259.579 19.8558 -248.938 42.8524 0.98447 0.175553 1 0.5 0 1
31 1 75.0646 25.4287 0 -4.20139 25.4287 0 -200.929 494.24 -12.6663 85.2474 -0.969777 0.243993 1 0.5 0 1
32 1 7.39133 16.8956 0 7.39133 16.8956 0 -9.04949 182.418 -122.4 1.21472 -0.949674 -0.313239 1 0.5 0 1
33 1 64.4543 57.3198 0 64.4543 -21.9462 0 733.726 -154.78 85.063 -63.9592 0.807433 -0.589959 1 0.5 0 1
34 1 5.94331 43.0673 0 85.2093 43.0673 0 -155.41 153.588 131.185 -63.1856 0.202668 0.979248 1 0.5 0 1
35 1 19.7565 57.9367 0 -59.5095 57.9367 0 -1061.36 707.018 -48.0633 -51.1084 -0.462977 -0.88637 1 0.5 0 1
36 1 59.991 56.5682 0 59.991 -22.6978 0 -84.2363 -491.358 -248.625 -72.8422 0.777457 0.628936 1 0.5 0 1
37 1 70.1577 41.4994 0 70.1577 41.4994 0 -211.871 -78.1514 65.756 4.15853 -0.528809 0.848741 1 0.5 0 1
38 1 62.4297 6.81256 0 141.696 86.0786 0 -301.564 373.621 44.4504 20.3257 0.845052 0.534684 1 0.5 0 1
39 1 1.52859 77.6786 0 80.7946 -80.8534 0 13.7555 261.041 98.4227 17.6913 0.984227 0.176913 1 0.5 0 1
40 1 25.2616 76.6682 0 -54.0044 76.6682 0 442.599 -448.477 74.719 111.542 0.731673 0.681656 1 0.5 0 1
41 1 68.863 51.7434 0 68.863 51.7434 0 816.333 457.133 -59.4816 -56.2346 -0.611596 0.79117 1 0.5 0 1
42 1 74.1547 58.5236 0 -5.11134 58.5236 0 -37.9186 -1047.88 88.7837 84.3419 -0.44452 -0.895769 1 0.5 0 1
43 1 4.69374 13.6194 0 -74.5723 92.8854 0 -239.525 805.716 -46.1942 15.9886 -0.999888 -0.014974 1 0.5 0 1
44 1 65.6019 20.308 0 65.6019 99.574 0 -144.01 -129.533 143.051 -23.9611 -0.935561 -0.353165 1 0.5 0 1
45 1 41.6328 48.771 0 41.6328 -30.495 0 -218.274 -354.739 -37.3402 -86.3104 -0.137474 -0.990505 1 0.5 0 1
46 1 6.98058 39.8841 0 6.98058 39.8841 0 24.7411 -656.142 2.46301 -29.5763 -0.372569 0.928004 1 0.5 0 1
47 1 57.7274 59.4879 0 57.7274 -19.7781 0 -634.103 289.329 -15.0406 24.5422 0.832914 -0.553402 1 0.5 0 1
48 1 11.637 45.0774 0 11.637 45.0774 0 309.728 -66.2421 -130.259 288.665 -0.872026 -0.489459 1 0.5 0 1
49 1 72.798 9.83299 0 72.798 89.099 0 -641.67 -193.897 -103.444 -24.6509 -0.999934 0.0114551 1 0.5 0 1
50 1 38.5478 29.1288 0 38.5478 29.1288 0 528.243 -868.545 -90.2935 57.4977 -0.856084 0.516837 1 0.5 0 1
51 1 60.1411 0.471115 0 -19.1249 0.471115 0 399.734 -103.48 -57.6976 -81.6761 -0.576976 -0.816761 1 0.5 0 1
52 1 4.39425 31.6466 0 83.6603 31.6466 0 -83.8576 -112.536 -48.8459 87.9956 0.12604 0.992025 1 0.5 0 1
53 1 10.9302 53.7749 0 10.9302 133.041 0 203.879 -600.628 -54.1185 -93.0647 -0.986079 0.166275 1 0.5 0 1
54 1 54.0614 28.6184 0 54.0614 28.6184 0 508.647 541.824 -181.254 92.9204 -0.992363 -0.123349 1 0.5 0 1
55 1 33.9798 31.6558 0 113.246 110.922 0 -267.716 -553.125 -99.7184 -7.4998 -0.997184 -0.074998 1 0.5 0 1
56 1 18.6377 46.8826 0 18.6377 46.8826 0 69.823 342.614 139.108 121.745 0.600997 0.799251 1 0.5 0 1
57 1 35.1173 19.2968 0 35.1173 98.5628 0 759.815 208.571 -57.8918 89.2447 -0.572296 0.820047 1 0.5 0 1
58 1 68.8544 26.1308 0 -10.4116 26.1308 0 20.7669 221.238 -152.584 -28.0481 -0.810965 0.585094 1 0.5 0 1
59 1 53.2615 32.8791 0 53.2615 32.8791 0 -88.6496 240.676 -8.8069 -113.023 -0.951431 -0.307862 1 0.5 0 1
60 1 57.0318 39.8082 0 57.0318 39.8082 0 270.396 -589.484 -238.247 45.332 -0.0420122 -0.999117 1 0.5 0 1
61 1 59.4711 43.5226 0 59.4711 43.5226 0 -567.78 205.136 -123.382 -252.129 0.239291 0.970948 1 0.5 0 1
62 1 51.1895 20.6655 0 130.455 20.6655 0 592.956 -146.572 111.702 -28.1648 0.772707 0.634763 1 0.5 0 1
63 1 13.7542 59.5327 0 -65.5118 -19.7333 0 260.242 -49.0774 53.3466 27.1108 0.527699 -0.849431 1 0.5 0 1
64 1 46.8415 28.9435 0 126.107 108.209 0 319.044 -22.616 77.1333 -114.687 0.615022 0.78851 1 0.5 0 1
65 1 63.939 6.20639 0 143.205 85.4724 0 43.5434 -6.33576 82.36 75.7866 0.405665 -0.914022 1 0.5 0 1
66 1 14.6386 42.5806 0 93.9046 121.847 0 76.4386 -27.1386 -7.81929 122.831 -0.739179 0.673509 1 0.5 0 1
67 1 54.9015 41.756 0 54.9015 41.756 0 -173.988 811.815 -111.033 -153.578 -0.417289 -0.908774 1 0.5 0 1
68 1 14.8708 40.0177 0 14.8708 40.0177 0 -124.467 -281.048 8.06421 -65.6579 -0.746202 0.66572 1 0.5 0 1
69 1 26.4318 45.3019 0 26.4318 45.3019 0 635.532 -117.304 96.8169 -25.0299 0.968169 -0.250299 1 0.5 0 1
70 1 49.7035 36.9825 0 49.7035 116.248 0 498.271 53.6019 75.4441 -41.3462 0.916359 0.400357 1 0.5 0 1
71 1 75.6899 12.447 0 75.6899 12.447 0 1103.92 259.647 -71.5308 -66.5574 0.957597 0.28811 1 0.5 0 1
72 1 3.24741 55.4277 0 3.24741 55.4277 0 -192.456 142.299 97.5707 153.464 -0.398987 -0.916957 1 0.5 0 1
73 1 8.46955 20.4185 0 8.46955 20.4185 0 540.518 169.421 -190.789 -224.54 -0.941801 -0.336172 1 0.5 0 1
74 1 58.6314 13.4706 0 58.6314 92.7366 0 -641.908 -233.312 -81.2136 58.3468 -0.812136 0.583468 1 0.5 0 1
75 1 75.8147 36.2436 0 -3.45127 36.2436 0 97.6259 126.808 56.7722 129.657 -0.0426204 0.999091 1 0.5 0 1
76 1 49.0708 25.9244 0 -30.1952 25.9244 0 -456.377 419.688 28.8951 -4.6444 0.426636 0.904423 1 0.5 0 1
77 1 78.495 32.6086 0 -0.771013 32.6086 0 -283.423 22.5228 -131.765 130.222 0.993771 0.111437 1 0.5 0 1
78 1 42.498 73.7464 0 42.498 73.7464 0 -248.558 -408.915 14.6945 53.8553 0.730659 0.682742 1 0.5 0 1
79 1 75.6575 74.5782 0 -3.60846 74.5782 0 219.71 836.979 -89.0741 45.2038 -0.800211 0.599719 1 0.5 0 1
80 1 1.24265 25.019 0 1.24265 -54.247 0 432.812 242.955 -88.333 -43.1382 0.704533 0.709671 1 0.5 0 1
81 1 49.2201 33.9011 0 128.486 33.9011 0 -105.361 161.071 -140.848 174.233 0.143595 -0.989636 1 0.5 0 1
82 1 1.12012 36.7614 0 1.12012 36.7614 0 -218.216 -102.882 -59.1326 200.486 0.421965 0.906612 1 0.5 0 1
83 1 39.905 42.851 0 119.171 122.117 0 209.342 -106.895 2.21086 -131.845 0.649472 -0.760386 1 0.5 0 1
84 1 76.68 43.5239 0 -2.58602 43.5239 0 653.595 33.9685 2.20396 1.03823 -0.997663 -0.0683261 1 0.5 0 1
85 1 57.0467 69.6485 0 57.0467 -9.61753 0 728.92 403.351 52.474 85.1263 0.52474 0.851263 1 0.5 0 1
86 1 11.1191 38.6581 0 11.1191 38.6581 0 490.457 360.723 -83.2375 -255.661 -0.826044 0.563605 1 0.5 0 1
87 1 11.4763 40.5973 0 11.4763 40.5973 0 -568.846 637.123 -11.1848 -180.08 -0.937053 0.349188 1 0.5 0 1
88 1 34.3045 73.7185 0 34.3045 -5.54745 0 -432.229 -512.186 -37.835 24.4284 -0.281654 -0.959516 1 0.5 0 1
89 1 41.7833 37.0022 0 41.7833 37.0022 0 62.5085 173.17 53.6096 -44.5829 0.261905 -0.965094 1 0.5 0 1
90 1 4.43834 36.1532 0 4.43834 36.1532 0 -26.5593 -9.68156 179.596 134.182 -0.918576 -0.395244 1 0.5 0 1
91 1 17.0688 56.9073 0 17.0688 -22.3587 0 -238.35 -111.272 79.7777 57.2056 -0.0898471 -0.995956 1 0.5 0 1
92 1 2.77806 52.5263 0 2.77806 52.5263 0 333.381 -212.098 -70.0449 29.9254 -0.844788 0.535101 1 0.5 0 1
93 1 1.67173 43.265 0 1.67173 43.265 0 -1423.19 21.5151 96.4955 16.1528 -0.199682 0.979861 1 0.5 0 1
94 1 70.3012 35.3779 0 70.3012 35.3779 0 924.352 32.4571 53.1905 88.3696 0.87485 -0.484395 1 0.5 0 1
95 1 67.2677 47.5819 0 67.2677 47.5819 0 595.933 -228.382 -395.732 301.064 0.87411 -0.485728 1 0.5 0 1
96 1 54.6847 40.7314 0 54.6847 40.7314 0 31.6837 -266.7 142.829 7.5888 0.412124 -0.911128 1 0.5 0 1
97 1 35.4251 76.7711 0 35.4251 -2.49488 0 -743.008 591.43 -6.058 -63.5469 0.252851 -0.967505 1 0.5 0 1
98 1 40.371 53.4527 0 40.371 53.4527 0 506.831 238.83 -53.3071 -50.0892 -0.853658 -0.520833 1 0.5 0 1
99 1 44.0641 39.3615 0 44.0641 -39.9045 0 140.808 490.188 71.4715 2.60325 0.966846 0.255359 1 0.5 0 1
100 1 72.9197 42.356 0 72.9197 42.356 0 -446.378 -222.841 -104.172 271.932 -0.832641 -0.553812 1 0.5 0 1
101 1 49.657 46.1946 0 49.657 -33.0714 0 -357.794 284.054 -72.2245 -98.4538 0.985284 0.170924 1 0.5 0 1
102 1 78.609 40.6268 0 -0.656993 40.6268 0 206.699 -283.788 -3.78345 236.586 -0.987534 -0.157407 1 0.5 0 1
103 1 23.393 53.3604 0 -55.873 132.626 0 -391.325 -380.686 -22.5125 74.715 -0.290921 0.956747 1 0.5 0 1
104 1 54.1892 42.4184 0 54.1892 121.684 0 -155.037 297.685 -293.452 -26.9431 0.0654462 0.997856 1 0.5 0 1
105 1 70.2215 10.9302 0 -9.04447 10.9302 0 551.554 -299.371 33.4705 -42.7438 0.942949 0.332939 1 0.5 0 1
106 1 76.7668 72.164 0 -2.49924 -7.10199 0 -201.868 135.974 37.5443 18.0387 0.181862 -0.983324 1 0.5 0 1
107 1 62.359 36.2388 0 62.359 36.2388 0 75.8682 14.9556 115.687 -13.4179 0.297581 -0.954697 1 0.5 0 1
108 1 78.9795 34.5278 0 -0.28653 113.794 0 559.782 -205.101 -163.405 -30.6151 0.712135 -0.702043 1 0.5 0 1
109 1 35.784 74.0485 0 -43.482 74.0485 0 -116.048 -282.512 11.7272 -19.6295 -0.322047 0.946724 1 0.5 0 1
110 1 50.7343 30.413 0 50.7343 30.413 0 191.501 341.414 -170.178 3.17378 -0.237542 0.971377 1 0.5 0 1
111 1 72.2321 11.2606 0 72.2321 90.5266 0 298.837 -1027.48 -43.759 -11.1078 0.176342 0.984329 1 0.5 0 1
112 1 10.4052 47.3275 0 10.4052 47.3275 0 131.911 668.744 266.602 -85.9307 0.69787 -0.716225 1 0.5 0 1
113 1 26.4767 7.48981 0 -52.7893 86.7558 0 -222.891 124.01 -27.9834 96.0048 -0.279834 0.960048 1 0.5 0 1
114 1 53.3235 53.1014 0 53.3235 53.1014 0 -442.747 806.034 91.8701 -177.85 0.479762 -0.877399 1 0.5 0 1
115 1 25.8303 69.469 0 25.8303 -9.79698 0 697.279 -920.008 47.3086 -88.1016 0.473086 -0.881016 1 0.5 0 1
116 1 19.2752 41.1587 0 19.2752 -38.1073 0 -181.099 387.035 -67.0433 -115.508 -0.75856 -0.651603 1 0.5 0 1
117 1 41.1551 24.7487 0 41.1551 24.7487 0 -60.6694 766.378 86.4627 50.2415 0.864627 0.502415 1 0.5 0 1
118 1 55.4169 40.0928 0 55.4169 40.0928 0 -748.778 -485.301 -59.5952 95.0871 0.889817 -0.456318 1 0.5 0 1
119 1 36.1987 20.0895 0 115.465 20.0895 0 -320.279 -165.474 99.3508 11.376 0.993508 0.11376 1 0.5 0 1
120 1 45.7528 50.5076 0 125.019 -28.7584 0 471.651 329.519 -49.6408 -13.4008 0.501786 -0.864992 1 0.5 0 1
121 1 52.3252 60.5128 0 -106.207 -18.7532 0 185.154 388.499 6.54453 41.3722 -0.637949 -0.770079 1 0.5 0 1
122 1 50.9312 17.8368 0 50.9312 97.1028 0 -738.225 -976.034 -95.4194 -29.9188 -0.954194 -0.299188 1 0.5 0 1
123 1 75.1115 29.8689 0 -4.15448 29.8689 0 306.22 -817.975 -127.761 -77.7179 -0.979851 0.19973 1 0.5 0 1
124 1 13.4203 14.112 0 13.4203 14.112 0 405.566 502.077 -10.2595 -99.4723 -0.102595 -0.994723 1 0.5 0 1
125 1 67.1367 26.3418 0 67.1367 26.3418 0 191.27 574.035 14.3078 -77.3666 0.418427 -0.908251 1 0.5 0 1
126 1 9.2437 33.4442 0 88.5097 112.71 0 564.18 -91.628 -89.1781 37.5913 0.367104 0.93018 1 0.5 0 1
127 1 58.6859 29.4282 0 58.6859 108.694 0 36.5139 -20.067 -19.7391 -70.2615 0.585685 0.810539 1 0.5 0 1
128 1 3.72234 23.8349 0 -75.5437 23.8349 0 740.167 264.633 -42.6799 25.4481 -0.885352 -0.464922 1 0.5 0 1
129 1 67.7852 55.8261 0 67.7852 -23.4399 0 -200.02 41.1447 -115.444 4.18562 0.992136 0.125166 1 0.5 0 1
130 1 73.6825 54.7105 0 73.6825 -24.5555 0 -422.235 -162.292 264.835 -53.2799 0.294631 -0.955611 1 0.5 0 1
131 1 66.2788 7.89643 0 -12.9872 87.1624 0 -311.88 -5.49803 78.6689 -61.7349 0.786689 -0.617349 1 0.5 0 1
132 1 60.6989 31.1114 0 -18.5671 110.377 0 -557.482 713.69 154.425 -18.4263 0.43541 0.900232 1 0.5 0 1
133 1 24.8286 54.6036 0 24.8286 133.87 0 -1417.24 -675.474 34.8153 10.1098 -0.977221 -0.212223 1 0.5 0 1
134 1 12.4373 36.3507 0 12.4373 36.3507 0 920.873 -556.482 -147.817 8.42317 -0.989603 0.143828 1 0.5 0 1
135 1 13.9639 50.3245 0 13.9639 129.591 0 36.2246 646.395 -103.229 -27.0724 -0.331643 0.943405 1 0.5 0 1
136 1 53.5708 75.7639 0 53.5708 75.7639 0 395.683 -511.199 92.613 -37.7204 0.92613 -0.377204 1 0.5 0 1
137 1 52.6625 24.059 0 131.929 103.325 0 412.784 -260.4 -128.769 107.386 -0.837662 -0.54619 1 0.5 0 1
138 1 47.673 51.307 0 -31.593 -27.959 0 212.922 483.862 -28.6908 -64.378 0.0509585 -0.998701 1 0.5 0 1
139 1 43.6913 42.0455 0 43.6913 -37.2205 0 543.402 561.971 -126.199 -12.5115 0.989103 -0.147228 1 0.5 0 1
140 1 12.6482 5.07662 0 12.6482 5.07662 0 -165.303 267.736 -99.9953 0.96576 -0.999953 0.0096576 1 0.5 0 1
141 1 8.57263 55.7107 0 8.57263 55.7107 0 322.42 -396.641 97.9862 12.6374 0.963701 0.266985 1 0.5 0 1
142 1 64.7063 2.34939 0 -14.5597 81.6154 0 -1011.04 -277.997 28.7649 111.088 -0.999623 -0.0274705 1 0.5 0 1
143 1 11.154 34.1109 0 11.154 113.377 0 170.959 4.58461 -70.0319 -213.906 0.0659958 0.99782 1 0.5 0 1
144 1 21.019 45.2335 0 21.019 -34.0325 0 -658.728 -1155.6 -152.781 -36.9863 -0.531405 0.847118 1 0.5 0 1
145 1 0.427295 10.4365 0 79.6933 89.7025 0 -414.822 -409.673 104.237 -33.9995 -0.422974 -0.906142 1 0.5 0 1
146 1 58.798 60.817 0 58.798 -18.449 0 -452.21 -67.522 21.485 141.543 0.989318 -0.145775 1 0.5 0 1
147 1 1.03477 66.757 0 80.3008 -12.509 0 14.3115 432.792 178.778 -176.887 -0.35044 -0.936585 1 0.5 0 1
148 1 48.5548 53.132 0 127.821 53.132 0 67.6313 905.99 38.2565 45.2951 0.887478 0.46085 1 0.5 0 1
149 1 72.398 29.9723 0 72.398 109.238 0 -363.946 -243.36 117.18 38.14 -0.922154 -0.386824 1 0.5 0 1
150 1 67.4202 34.5697 0 -11.8458 34.5697 0 131.134 210.269 -105.561 11.2746 0.0913543 0.995818 1 0.5 0 1
151 1 2.32495 55.0991 0 81.591 -24.1669 0 -379.418 1674.47 74.7882 -188.346 0.0585637 0.998284 1 0.5 0 1
152 1 52.0443 72.4072 0 52.0443 72.4072 0 -116.891 -888.264 45.4048 -89.0977 0.454048 -0.890977 1 0.5 0 1
153 1 75.9021 58.3413 0 75.9021 58.3413 0 279.616 -3.53743 -44.8533 -264.824 0.169037 -0.98561 1 0.5 0 1
154 1 2.53534 47.1058 0 2.53534 47.1058 0 172.252 -1011.33 -124.439 193.955 -0.981293 0.192522 1 0.5 0 1
155 1 65.4239 64.3325 0 -93.1081 -14.9335 0 -1245.65 -234.426 56.9524 83.4415 0.676093 -0.736816 1 0.5 0 1
156 1 74.0168 47.0545 0 74.0168 47.0545 0 766.382 -835.762 147.1 6.99975 -0.884797 0.465978 1 0.5 0 1
157 1 6.98886 27.1515 0 6.98886 27.1515 0 -57.2468 -510.857 50.5456 126.051 0.943869 0.330319 1 0.5 0 1
158 1 67.6086 38.0662 0 -11.6574 38.0662 0 -30.1464 423.013 8.68406 173.694 -0.0342632 -0.999413 1 0.5 0 1
159 1 33.202 67.3361 0 33.202 67.3361 0 -692.579 -92.4841 -133.514 -5.2281 -0.950054 -0.312086 1 0.5 0 1
160 1 78.682 10.5122 0 -0.584017 10.5122 0 283.686 223.521 -141.163 -40.769 0.261171 -0.965293 1 0.5 0 1
161 1 36.6931 57.0655 0 36.6931 -22.2005 0 218.226 301.006 58.5065 -26.1302 0.683914 -0.729563 1 0.5 0 1
162 1 5.77496 50.0771 0 5.77496 50.0771 0 -323.592 1119.96 100.89 -113.385 -0.170386 -0.985377 1 0.5 0 1
163 1 63.8763 47.9134 0 63.8763 47.9134 0 271.058 1069.05 68.2703 -36.7375 0.326258 0.945281 1 0.5 0 1
164 1 49.0471 78.1417 0 49.0471 -1.12434 0 -217.754 305.439 42.637 -45.9077 0.279232 -0.960224 1 0.5 0 1
165 1 12.8385 75.562 0 12.8385 -3.70397 0 544.24 -505.973 -89.4314 67.5649 -0.809824 0.586672 1 0.5 0 1
166 1 10.228 42.8327 0 10.228 42.8327 0 72.366 -1014.73 -50.4361 77.4667 0.609206 0.793012 1 0.5 0 1
167 1 66.3454 26.9195 0 66.3454 26.9195 0 152.563 -234.923 -106.984 150.516 0.808917 -0.587922 1 0.5 0 1
168 1 44.8886 16.7617 0 -34.3774 96.0277 0 -766.725 1060.71 -95.1474 30.7731 -0.951474 0.307731 1 0.5 0 1
169 1 59.0738 74.0656 0 -20.1922 153.332 0 -361.552 -30.6302 -92.2621 -38.5707 -0.922621 -0.385707 1 0.5 0 1
170 1 15.1898 48.0258 0 94.4558 127.292 0 -46.4852 131.833 43.0075 -67.9339 -0.714121 0.700023 1 0.5 0 1
171 1 49.983 23.2229 0 129.249 23.2229 0 32.7646 606.251 42.0296 -19.2595 0.993125 0.117059 1 0.5 0 1
172 1 6.84738 55.9726 0 6.84738 -23.2934 0 48.1536 352.613 -85.477 -138.371 -0.0611941 -0.998126 1 0.5 0 1
173 1 19.5459 49.8609 0 19.5459 -29.4051 0 312.23 177.744 -4.5386 24.8065 -0.440032 -0.897982 1 0.5 0 1
174 1 8.42396 50.1979 0 8.42396 50.1979 0 64.0944 -409.312 130.749 -238.28 -0.509859 0.860258 1 0.5 0 1
175 1 61.0119 77.4485 0 -18.2541 -1.81752 0 -1146.55 351.463 -28.9875 18.0546 -0.870072 -0.492925 1 0.5 0 1
176 1 9.9071 48.9322 0 9.9071 48.9322 0 271.905 1031.68 53.0725 -94.2569 -0.0308515 0.999524 1 0.5 0 1
177 1 6.74336 62.5685 0 6.74336 62.5685 0 -18.6399 66.0581 -77.7242 119.189 -0.796025 -0.605264 1 0.5 0 1
178 1 58.3651 27.4693 0 -20.9009 106.735 0 658.371 -238.473 7.56445 52.2667 -0.804423 0.594056 1 0.5 0 1
179 1 3.71139 52.881 0 3.71139 -26.385 0 -58.3726 -294.778 77.4214 -117.811 0.242474 -0.970158 1 0.5 0 1
180 1 74.1442 40.1116 0 74.1442 40.1116 0 115.057 321.373 29.183 -154.705 -0.187278 0.982307 1 0.5 0 1
181 1 61.9354 16.2475 0 61.9354 16.2475 0 63.4947 647.942 78.57 3.8195 -0.0600251 0.998197 1 0.5 0 1
182 1 43.5362 73.9348 0 -35.7298 73.9348 0 -159.159 305.297 -29.5142 34.886 -0.974964 -0.222361 1 0.5 0 1
183 1 58.922 55.23 0 58.922 -24.036 0 77.857 706.484 -216.854 64.1383 -0.300857 0.953669 1 0.5 0 1
184 1 64.0802 41.4018 0 64.0802 41.4018 0 -418.337 368.174 67.8526 -80.0941 -0.843239 -0.537539 1 0.5 0 1
185 1 13.2581 12.2379 0 13.2581 12.2379 0 677.646 151.268 17.1581 -89.5302 0.199246 -0.979949 1 0.5 0 1
186 1 69.7898 9.8993 0 -9.47625 89.1653 0 136.28 18.6258 129.646 -39.2676 -0.343699 0.93908 1 0.5 0 1
187 1 56.7566 33.2581 0 -22.5094 112.524 0 50.9608 -449.655 123.424 -73.7607 0.978872 0.204476 1 0.5 0 1
188 1 37.6693 0.737346 0 116.935 80.0033 0 -225.903 -222.098 89.8844 43.8269 0.898844 0.438269 1 0.5 0 1
189 1 22.8405 50.4301 0 22.8405 50.4301 0 -573.952 747.739 -32.8768 94.4411 -0.328768 0.944411 1 0.5 0 1
190 1 19.9863 53.7826 0 -59.2797 53.7826 0 -610.035 405.146 -87.6579 48.1257 -0.876579 0.481257 1 0.5 0 1
191 1 65.9455 16.6873 0 145.211 16.6873 0 -351.318 -510.129 119.528 10.1867 0.249537 -0.968365 1 0.5 0 1
192 1 59.7993 36.1799 0 59.7993 36.1799 0 364.021 361.291 -164.989 161.133 0.184055 -0.982916 1 0.5 0 1
193 1 53.7357 64.2183 0 -25.5303 64.2183 0 335.1 2.2622 89.2538 45.0973 0.892538 0.450973 1 0.5 0 1
194 1 12.8896 23.4714 0 12.8896 23.4714 0 489.672 58.4194 32.2566 -51.088 0.00163472 -0.999999 1 0.5 0 1
195 1 55.0372 28.9699 0 55.0372 28.9699 0 250.469 -357.249 -97.7177 157.127 -0.682898 -0.730514 1 0.5 0 1
196 1 59.5465 39.8158 0 59.5465 39.8158 0 376.164 11.6636 -121.513 -228.063 -0.765284 -0.643693 1 0.5 0 1
197 1 70.844 59.8869 0 -8.42202 59.8869 0 149.429 -322.216 16.0394 170.775 0.992918 0.118798 1 0.5 0 1
198 1 74.0536 43.5835 0 74.0536 43.5835 0 -681.797 -373.951 272.52 29.5234 -0.301019 0.953618 1 0.5 0 1
199 1 64.5636 66.0354 0 -14.7024 -13.2306 0 332.025 200.673 -14.3228 -52.0466 -0.18018 -0.983634 1 0.5 0 1
200 1 6.69936 13.3178 0 85.9654 92.5838 0 -180.224 5.24674 37.4864 88.4895 0.490878 0.871228 1 0.5 0 1
201 1 23.0807 38.346 0 23.0807 38.346 0 -644.631 -870.004 71.6155 69.7942 0.716155 0.697942 1 0.5 0 1
202 1 56.5475 57.1751 0 -22.7185 -22.0909 0 -196.916 295.524 8.03731 -169.903 0.985168 -0.171595 1 0.5 0 1
203 1 40.0842 67.2169 0 -39.1818 67.2169 0 877.91 56.9745 -1.63441 99.6036 -0.00559614 0.999984 1 0.5 0 1
204 1 64.1531 61.9358 0 64.1531 -17.3302 0 -115.781 -699.304 203.515 256.767 -0.488925 -0.872326 1 0.5 0 1
205 1 10.3965 62.3711 0 10.3965 62.3711 0 431.758 -285.24 19.0514 39.9802 -0.0530468 0.998592 1 0.5 0 1
206 1 1.65546 56.6616 0 1.65546 -22.6044 0 334.502 613.43 -31.7907 -50.8898 -0.48174 0.876314 1 0.5 0 1
207 1 46.4923 60.8914 0 46.4923 60.8914 0 -5.62736 -439.473 78.9429 -61.3842 0.789429 -0.613842 1 0.5 0 1
208 1 9.58872 30.7697 0 9.58872 30.7697 0 423.711 297.584 -58.804 16.6418 -0.96955 -0.244894 1 0.5 0 1
209 1 54.5971 26.0448 0 54.5971 105.311 0 -227.15 -32.0546 -91.713 -41.726 0.267881 0.963452 1 0.5 0 1
210 1 65.7408 60.6844 0 -13.5252 60.6844 0 572.547 -215.357 -47.4341 153.874 -0.716086 0.698012 1 0.5 0 1
211 1 61.5612 41.4215 0 61.5612 41.4215 0 -241.07 631.25 -136.223 120.184 0.973889 -0.227023 1 0.5 0 1
212 1 35.4779 14.5976 0 194.01 14.5976 0 83.2038 776.673 85.4464 51.951 0.854464 0.51951 1 0.5 0 1
213 1 68.7643 63.8957 0 68.7643 63.8957 0 -401.861 -516.33 71.172 -56.3925 0.734358 0.678762 1 0.5 0 1
214 1 57.3476 17.9243 0 57.3476 97.1903 0 273.953 327.479 34.5398 16.6066 -0.969187 -0.246325 1 0.5 0 1
215 1 54.9474 58.4271 0 54.9474 -20.8389 0 240.634 881.722 -24.5165 -64.7 0.0432852 -0.999063 1 0.5 0 1
216 1 15.6848 43.7959 0 15.6848 123.062 0 -409.031 542.057 84.8639 -167.662 -0.133229 0.991085 1 0.5 0 1
217 1 25.3908 41.5373 0 104.657 41.5373 0 -276.18 29.7651 44.7914 87.6883 0.534823 0.844964 1 0.5 0 1
218 1 46.2461 47.7865 0 46.2461 47.7865 0 -467.332 225.097 -126.882 -53.0849 -0.699931 -0.71421 1 0.5 0 1
219 1 53.4288 43.0309 0 53.4288 43.0309 0 523.213 487.984 177.836 -189.485 -0.906513 -0.422178 1 0.5 0 1
220 1 34.8204 6.75256 0 34.8204 -72.5134 0 9.66229 -696.707 28.0755 -95.978 0.280755 -0.95978 1 0.5 0 1
221 1 9.12309 72.2228 0 9.12309 151.489 0 -473.76 -124.907 -53.0177 84.7887 -0.530177 0.847887 1 0.5 0 1
222 1 32.9732 70.7347 0 32.9732 -8.53129 0 -117.687 241.595 -46.396 91.4744 -0.409099 0.91249 1 0.5 0 1
223 1 72.2077 36.0107 0 -7.05827 36.0107 0 770.142 -24.4636 -43.9283 -304.761 -0.993014 0.117999 1 0.5 0 1
224 1 75.1906 59.8929 0 -4.07536 59.8929 0 624.865 86.8976 -91.5199 -305.472 0.0696988 -0.997568 1 0.5 0 1
225 1 28.7817 45.1423 0 108.048 -34.1237 0 671.108 216.792 49.8771 -58.3758 -0.336259 -0.94177 1 0.5 0 1
226 1 5.67697 67.6979 0 5.67697 -11.5681 0 -451.365 -984.668 21.2113 85.4524 -0.993254 0.115962 1 0.5 0 1
227 1 1.61189 35.1214 0 80.8779 35.1214 0 -430.429 -188.355 43.1338 -43.2748 -0.827852 -0.560946 1 0.5 0 1
228 1 8.80323 18.2497 0 -70.4628 18.2497 0 -219.395 -70.4067 58.0103 43.2483 -0.599647 -0.800265 1 0.5 0 1
229 1 52.6268 39.0498 0 52.6268 39.0498 0 69.6207 363.391 76.1645 10.4436 0.36159 -0.932337 1 0.5 0 1
230 1 53.1804 37.4257 0 53.1804 116.692 0 -1013.57 773.113 -178.281 -91.3824 -0.921206 0.389076 1 0.5 0 1
231 1 12.6302 22.46 0 12.6302 101.726 0 8.89872 -701.273 -61.8432 -13.1275 -0.985458 0.16992 1 0.5 0 1
232 1 50.2196 27.3829 0 50.2196 -51.8831 0 -310.27 139.491 -28.3334 40.4584 0.866682 0.498861 1 0.5 0 1
233 1 6.88935 43.4197 0 6.88935 43.4197 0 456.087 591.278 -4.08961 42.4434 -0.454018 0.890992 1 0.5 0 1
234 1 16.6749 53.9155 0 16.6749 -25.3505 0 -60.6227 -1037.52 -40.3186 89.5949 0.419265 0.907864 1 0.5 0 1
235 1 33.5326 23.9672 0 33.5326 103.233 0 -355.435 381.668 -29.466 95.5602 -0.29466 0.955602 1 0.5 0 1
236 1 41.0057 34.9691 0 120.272 34.9691 0 -451.132 -8.25477 -12.8777 -110.556 0.126741 -0.991936 1 0.5 0 1
237 1 62.8064 4.24957 0 62.8064 4.24957 0 -143.7 -163.388 50.7483 -31.1364 0.286991 -0.957933 1 0.5 0 1
238 1 72.2832 19.8452 0 72.2832 99.1112 0 149.551 80.3864 120.15 12.4453 -0.262951 0.964809 1 0.5 0 1
239 1 3.68167 40.3882 0 82.9477 40.3882 0 714.697 -1398.97 -65.789 107.093 0.997954 0.063936 1 0.5 0 1
240 1 71.8032 14.7342 0 71.8032 14.7342 0 736.257 -667.741 229.885 -86.7479 0.955077 0.296359 1 0.5 0 1
241 1 49.523 35.9569 0 49.523 35.9569 0 2.89181 329.866 -29.819 41.6302 -0.816646 0.577139 1 0.5 0 1
242 1 1.31579 61.0951 0 80.5818 -18.1709 0 225.697 -90.2198 -50.1061 7.80067 0.772689 -0.634784 1 0.5 0 1
243 1 30.8973 76.6604 0 -48.3687 76.6604 0 -199.037 337.421 -67.3837 35.6815 -0.963502 -0.267702 1 0.5 0 1
244 1 61.6755 23.9314 0 61.6755 103.197 0 -466.146 -50.2213 133.04 41.9768 0.79749 -0.603332 1 0.5 0 1
245 1 56.3351 49.6878 0 56.3351 49.6878 0 -171.558 -79.1359 -17.6073 -117.262 -0.269111 0.963109 1 0.5 0 1
246 1 50.2383 39.9578 0 50.2383 39.9578 0 -162.602 -386.219 216.229 -111.49 0.36354 -0.931579 1 0.5 0 1
247 1 67.3049 52.9135 0 67.3049 -26.3525 0 -587.201 440.078 114.437 195.241 -0.330445 -0.943825 1 0.5 0 1
248 1 9.50056 20.1609 0 -69.7654 99.4269 0 -84.6303 499.616 -60.9593 -16.7649 -0.236496 -0.971632 1 0.5 0 1
249 1 2.99164 5.97877 0 82.2576 5.97877 0 -146.532 242.014 -40.326 -91.5086 -0.40326 -0.915086 1 0.5 0 1
250 1 61.3216 75.7944 0 140.588 75.7944 0 -141.656 -73.6692 -7.47938 53.6743 0.998503 -0.0547019 1 0.5 0 1
251 1 9.62924 19.1374 0 9.62924 177.669 0 984.09 -420.867 -42.0818 -49.1878 -0.373794 0.927512 1 0.5 0 1
252 1 59.1827 18.9284 0 59.1827 98.1944 0 328.269 -107.594 70.5051 18.7795 0.66791 0.744242 1 0.5 0 1
253 1 21.7162 50.3501 0 21.7162 50.3501 0 642.168 -898.549 -25.9656 -95.6514 -0.943186 -0.332264 1 0.5 0 1
254 1 48.4299 33.3695 0 48.4299 112.636 0 45.6771 355.026 -5.63121 -190.519 0.744306 0.667839 1 0.5 0 1
255 1 1.88625 32.5996 0 81.1523 111.866 0 -508.792 306.236 51.5058 -144.304 -0.985821 0.167803 1 0.5 0 1
256 1 69.2295 41.2165 0 -10.0365 41.2165 0 -670.725 -329.831 185.689 26.274 0.924925 -0.380149 1 0.5 0 1
257 1 8.0539 36.6298 0 8.0539 115.896 0 -607.304 -374.652 56.8992 26.1249 0.848326 -0.529475 1 0.5 0 1
258 1 8.27862 24.8251 0 8.27862 -54.4409 0 85.6094 -174.796 -110.675 -149.698 -0.889308 0.457309 1 0.5 0 1
259 1 63.4217 71.5122 0 63.4217 71.5122 0 -118.446 -285.323 20.8282 30.8523 -0.953079 -0.302721 1 0.5 0 1
260 1 66.3286 64.7806 0 145.595 -14.4854 0 -117.044 443.027 -24.3753 -18.9393 0.98476 -0.173919 1 0.5 0 1
261 1 34.8652 70.0613 0 -44.4008 -9.20468 0 -234.836 -27.557 30.4073 -78.7592 0.562139 -0.827043 1 0.5 0 1
262 1 56.6348 58.1584 0 135.901 -21.1076 0 178.627 -508.164 83.6861 249.095 0.880011 -0.474954 1 0.5 0 1
263 1 39.697 32.1697 0 -39.569 -47.0963 0 -1521.97 -76.9948 -33.6038 -94.1848 -0.336038 -0.941848 1 0.5 0 1
264 1 11.9278 3.48885 0 170.46 3.48885 0 -27.2794 567.961 86.9648 51.6639 0.841266 0.540621 1 0.5 0 1
265 1 53.8953 27.6384 0 53.8953 106.904 0 947.052 77.5216 -92.658 173.837 -0.554612 0.832109 1 0.5 0 1
266 1 55.7297 51.2592 0 55.7297 51.2592 0 158.191 111.938 -18.5444 -160.035 0.94986 -0.312677 1 0.5 0 1
267 1 71.9468 62.2775 0 -7.31917 -16.9885 0 -624.472 30.5551 3.99341 -38.2231 -0.807267 -0.590187 1 0.5 0 1
268 1 66.3901 59.0489 0 66.3901 59.0489 0 -1053.74 76.5581 -25.6806 -103.65 -0.284764 -0.958598 1 0.5 0 1
269 1 14.4725 48.6927 0 93.7385 48.6927 0 -432.773 -558.737 62.6954 29.797 0.53716 0.84348 1 0.5 0 1
270 1 34.5996 57.6983 0 113.866 -21.5677 0 -1194.01 -133.646 -18.6506 33.2124 -0.386067 0.922471 1 0.5 0 1
271 1 63.3746 17.4132 0 63.3746 17.4132 0 -290.186 252.156 64.3082 -0.800468 0.965206 0.261492 1 0.5 0 1
272 1 52.2571 37.0581 0 52.2571 37.0581 0 -310.403 793.698 60.6149 19.6726 -0.350185 -0.93668 1 0.5 0 1
273 1 59.7577 49.0495 0 59.7577 49.0495 0 -258.206 -284.147 404.847 -120.318 0.849731 -0.527217 1 0.5 0 1
274 1 14.8673 14.5396 0 14.8673 14.5396 0 -232.305 269.117 68.7824 72.5878 0.687824 0.725878 1 0.5 0 1
275 1 6.46588 59.5796 0 85.7319 -19.6864 0 925.523 568.185 -81.7475 -55.0733 -0.267084 0.963673 1 0.5 0 1
276 1 58.7812 44.1977 0 58.7812 44.1977 0 132.178 335.064 -90.0872 -54.2312 -0.25229 0.967652 1 0.5 0 1
277 1 7.77536 14.3566 0 -71.4906 14.3566 0 -182.125 -553.015 60.9074 -74.2433 0.645899 0.763423 1 0.5 0 1
278 1 10.5111 31.0868 0 -68.7549 110.353 0 635.263 -149.619 96.0044 114.342 -0.992931 -0.118694 1 0.5 0 1
279 1 37.1111 42.0903 0 116.377 -37.1757 0 48.5206 -31.7305 -27.0789 -96.2639 -0.270789 -0.962639 1 0.5 0 1
280 1 73.1935 6.72513 0 -6.0725 -72.5409 0 -119.142 122.791 -94.5521 -0.987336 -0.999206 0.0398312 1 0.5 0 1
281 1 68.5757 55.1878 0 68.5757 55.1878 0 724.832 -786.384 -32.6879 263.738 -0.538888 -0.842378 1 0.5 0 1
282 1 47.8905 46.5024 0 47.8905 -32.7636 0 477.086 75.7158 0.411291 -26.5867 0.607998 -0.793938 1 0.5 0 1
283 1 69.6771 29.966 0 -9.58886 109.232 0 608.481 -82.3476 -26.5941 -30.1788 0.049795 0.998759 1 0.5 0 1
284 1 7.78508 26.5584 0 7.78508 105.824 0 403.392 -151.356 52.0792 -200.369 0.802859 0.596169 1 0.5 0 1
285 1 66.268 33.3132 0 66.268 33.3132 0 -279.321 74.6898 -100.405 82.6197 0.907163 0.420779 1 0.5 0 1