ITEM: TIMESTEP
160000
ITEM: NUMBER OF ATOMS
4000
ITEM: BOX BOUNDS pp pp pp
0.0000000000000000e+00 7.9266000000000005e+01
0.0000000000000000e+00 7.9266000000000005e+01
-5.0000000000000000e-01 5.0000000000000000e-01
ITEM: ATOMS id type x y z xu yu zu vx vy fx fy mux muy mu radius omegaz mass
1 1 3.61149 1.80655 0 82.8775 81.0725 0 506.65 -744.117 68.0862 -73.2411 0.680862 -0.732411 1 0.5 0 1
2 1 21.1996 60.1429 0 21.1996 -19.1231 0 -520.756 -1061.53 -8.4838 -91.5509 0.772012 -0.635607 1 0.5 0 1
3 1 34.5074 52.5209 0 34.5074 -26.7451 0 753.467 176.712 57.7561 -165.044 -0.969314 -0.245827 1 0.5 0 1
4 1 51.37 27.6797 0 51.37 106.946 0 820.656 557.881 -8.96814 -175.96 -0.993661 -0.112416 1 0.5 0 1
5 1 13.2081 28.6749 0 13.2081 28.6749 0 135.234 -646.343 -73.6033 39.8748 -0.894105 0.447858 1 0.5 0 1
6 1 76.4037 25.2783 0 -2.86233 25.2783 0 -197.929 -350.088 -21.162 12.4379 -0.455875 0.890044 1 0.5 0 1
7 1 69.5279 46.5009 0 69.5279 46.5009 0 1156.76 582.512 20.5014 -103.803 -0.897201 0.441622 1 0.5 0 1
8 1 28.8815 62.918 0 28.8815 -16.348 0 -187.326 302.068 -23.394 -89.2265 -0.35122 -0.936293 1 0.5 0 1
9 1 66.705 21.1013 0 66.705 21.1013 0 363.153 772.767 -27.3613 60.1838 -0.290964 -0.956734 1 0.5 0 1
10 1 33.2588 56.1132 0 33.2588 56.1132 0 -266.308 -804.634 -61.3586 11.1918 -0.990396 -0.138261 1 0.5 0 1
11 1 40.6826 38.0945 0 -38.5834 38.0945 0 -298.383 -469.676 4.8002 -80.0015 -0.0256144 -0.999672 1 0.5 0 1
12 1 76.2274 3.09845 0 76.2274 82.3645 0 -814.451 -442.195 54.6631 83.7373 0.546631 0.837373 1 0.5 0 1
13 1 28.8261 43.223 0 28.8261 43.223 0 62.4191 561.823 34.3556 131.926 0.767454 -0.641104 1 0.5 0 1
14 1 28.016 24.4243 0 -51.25 24.4243 0 81.3799 -184.492 -54.6701 -48.3833 -0.666205 -0.745769 1 0.5 0 1
15 1 22.8142 43.3825 0 22.8142 43.3825 0 -934.414 16.033 -37.9042 -11.9117 -0.861673 -0.507465 1 0.5 0 1
16 1 32.7476 72.7737 0 -46.5184 -6.49233 0 513.064 -110.752 -8.78471 -9.92717 0.287661 -0.957732 1 0.5 0 1
17 1 58.8896 78.0415 0 58.8896 78.0415 0 850.259 -675.484 66.9124 20.1072 0.960248 -0.279149 1 0.5 0 1
18 1 23.3227 23.9052 0 23.3227 23.9052 0 -277.615 202.293 -1.25455 69.5146 -0.276731 0.960947 1 0.5 0 1
19 1 7.79865 38.1494 0 7.79865 38.1494 0 397.34 407.005 50.3282 -76.7923 -0.999542 -0.0302476 1 0.5 0 1
20 1 25.7524 56.9672 0 25.7524 56.9672 0 -97.0359 151.185 -78.0769 -105.596 0.93415 -0.356881 1 0.5 0 1
21 1 27.5795 15.9485 0 27.5795 15.9485 0 174.197 63.5277 3.00165 49.8449 -0.967323 0.253547 1 0.5 0 1
22 1 67.7093 23.4964 0 67.7093 23.4964 0 443.822 84.9413 -145.939 -81.8029 0.606001 -0.795464 1 0.5 0 1
23 1 68.1409 67.4322 0 68.1409 -11.8338 0 452.985 174.14 31.6015 50.2363 0.502551 0.864547 1 0.5 0 1
24 1 66.4711 54.4989 0 66.4711 -24.7671 0 -184.772 -589.202 102.065 -6.34705 -0.171206 -0.985235 1 0.5 0 1
25 1 34.3743 54.2947 0 -44.8917 -24.9713 0 1022.26 686.969 -59.921 -8.81073 -0.255307 -0.96686 1 0.5 0 1
26 1 27.1454 38.5732 0 27.1454 -40.6928 0 -524.235 653.763 89.8165 6.1197 0.898952 -0.438048 1 0.5 0 1
27 1 11.3246 66.4307 0 11.3246 66.4307 0 -315.916 -210.636 67.9527 -7.24492 -0.240268 0.970707 1 0.5 0 1
28 1 19.8905 70.7598 0 19.8905 70.7598 0 38.218 372.48 13.9933 46.5911 -0.233911 0.972258 1 0.5 0 1
29 1 78.1727 36.5132 0 -1.09334 36.5132 0 -38.7724 -52.2138 -213.381 -29.2343 -0.982081 -0.188459 1 0.5 0 1
30 1 54.3213 24.1291 0 54.3213 103.395 0 157.248 -292.732 69.451 -188.35 0.826244 0.563312 1 0.5 0 1
31 1 77.6632 21.9097 0 -1.60277 21.9097 0 566.331 585.863 -62.8769 -42.2535 -0.949859 -0.312679 1 0.5 0 1
32 1 36.4831 50.9105 0 36.4831 50.9105 0 -326.375 -403.538 34.4035 139.437 0.831696 -0.555232 1 0.5 0 1
33 1 64.7628 55.6711 0 64.7628 -23.5949 0 -553.058 -472.074 -144.443 45.2976 0.917456 0.397838 1 0.5 0 1
34 1 8.88266 41.7066 0 88.1487 41.7066 0 594.747 547.472 18.8339 -43.4803 0.0949109 0.995486 1 0.5 0 1
35 1 52.2197 61.2014 0 -27.0463 61.2014 0 -650.651 384.917 21.3468 -92.7016 -0.668328 0.743867 1 0.5 0 1
36 1 61.0487 54.7515 0 61.0487 -24.5145 0 -201.969 157.338 47.5997 23.6317 0.578171 -0.815916 1 0.5 0 1
37 1 73.3116 39.8805 0 73.3116 39.8805 0 892.244 -421.093 -48.0483 93.0112 0.817326 -0.576175 1 0.5 0 1
38 1 20.404 59.5138 0 99.67 59.5138 0 -42.0854 -426.084 -12.8935 -17.9256 0.159489 0.9872 1 0.5 0 1
39 1 38.3323 45.9135 0 38.3323 -33.3525 0 -381.186 -388.109 75.4833 -116.244 -0.166223 -0.986088 1 0.5 0 1
40 1 26.0511 20.8295 0 -53.2149 20.8295 0 -77.6305 -162.839 -27.3061 -6.82805 -0.503953 0.863731 1 0.5 0 1
41 1 70.6715 49.7555 0 70.6715 49.7555 0 652.687 86.1592 22.6144 126.148 -0.0399724 -0.999201 1 0.5 0 1
42 1 74.4576 57.5 0 -4.80845 57.5 0 -371.426 526.253 122.3 -244.587 -0.442835 -0.896603 1 0.5 0 1
43 1 53.4629 65.5324 0 -25.8031 65.5324 0 189.705 -329.161 24.967 99.6091 -0.856214 0.516621 1 0.5 0 1
44 1 56.1018 16.7282 0 56.1018 95.9942 0 100.699 -439.677 -50.0585 -8.10016 0.268018 0.963414 1 0.5 0 1
45 1 44.6526 11.519 0 44.6526 11.519 0 -105.35 338.917 -6.50122 -99.7884 -0.0650122 -0.997884 1 0.5 0 1
46 1 10.4575 38.6559 0 10.4575 38.6559 0 -379.468 -56.0575 141.982 81.4569 0.175146 0.984542 1 0.5 0 1
47 1 22.476 73.064 0 22.476 -6.20198 0 40.2635 -178.117 161.858 -23.999 0.999326 -0.036722 1 0.5 0 1
48 1 34.9869 39.615 0 34.9869 39.615 0 351.112 716.352 -119.954 -58.4679 -0.973707 -0.227805 1 0.5 0 1
49 1 25.6256 14.623 0 104.892 93.889 0 44.876 245.759 24.9434 -86.2442 0.775308 -0.631583 1 0.5 0 1
50 1 57.2137 30.4992 0 57.2137 30.4992 0 -395.946 -187.95 -105.072 149.095 0.246416 0.969164 1 0.5 0 1
51 1 71.5286 17.2663 0 -7.7374 17.2663 0 308.563 0.4918 45.5003 -159.349 -0.256307 0.966596 1 0.5 0 1
52 1 19.6061 9.83044 0 98.8721 9.83044 0 -443.153 303.802 12.6882 114.182 -0.129061 0.991637 1 0.5 0 1
53 1 31.1375 40.3956 0 31.1375 119.662 0 74.268 461.534 -63.184 -19.8074 -0.67973 0.733462 1 0.5 0 1
54 1 58.2492 26.5032 0 58.2492 26.5032 0 -771.73 -91.2573 100.784 48.9889 -0.263922 -0.964544 1 0.5 0 1
55 1 25.3719 8.12398 0 104.638 87.39 0 -636.469 624.938 -1.94032 18.0642 0.788868 0.614563 1 0.5 0 1
56 1 32.2924 54.1196 0 32.2924 54.1196 0 839.943 222.446 -9.97878 28.5757 -0.933095 0.35963 1 0.5 0 1
57 1 28.3145 77.2254 0 28.3145 77.2254 0 165.456 380.133 229.938 -62.6423 -0.647743 0.761859 1 0.5 0 1
58 1 72.6976 24.1514 0 -6.56841 24.1514 0 38.8005 197.697 -245.884 -134.06 -0.420066 0.907493 1 0.5 0 1
59 1 59.6649 31.6416 0 59.6649 31.6416 0 -375.022 -158.476 -33.434 10.6986 -0.911145 0.412086 1 0.5 0 1
60 1 59.8158 37.3839 0 59.8158 37.3839 0 -770.677 117.271 137.388 -50.2111 0.997436 0.0715672 1 0.5 0 1
61 1 62.155 40.9411 0 62.155 40.9411 0 554.979 -555.945 -185.494 -136.221 0.216856 0.976204 1 0.5 0 1
62 1 76.282 73.085 0 76.282 -6.18103 0 528.138 -12.9502 93.5662 35.2898 0.935662 0.352898 1 0.5 0 1
63 1 46.1294 30.8198 0 -33.1366 30.8198 0 -46.0117 -111.189 -69.4125 -54.7461 -0.841391 -0.540427 1 0.5 0 1
64 1 68.3517 0.0727332 0 68.3517 79.3387 0 -247.893 -291.637 87.0293 89.2326 -0.13608 0.990698 1 0.5 0 1
65 1 11.4543 23.6558 0 90.7203 102.922 0 -933.459 -98.8397 -43.8737 51.9476 0.4109 0.91168 1 0.5 0 1
66 1 14.7979 9.14646 0 94.0639 88.4125 0 131.308 -624.984 27.7113 -145.792 0.632306 0.774719 1 0.5 0 1
67 1 57.5418 39.2686 0 57.5418 39.2686 0 462.997 -488.78 -26.7219 189.167 0.88953 0.456878 1 0.5 0 1
68 1 34.3075 63.8163 0 34.3075 63.8163 0 371.693 -378.945 -69.6879 -25.3408 -0.952945 -0.303142 1 0.5 0 1
69 1 24.9559 59.8718 0 24.9559 59.8718 0 -23.7151 -562.99 69.3136 2.13885 -0.1708 -0.985306 1 0.5 0 1
70 1 50.9768 35.9918 0 50.9768 115.258 0 -161.314 104.897 -39.7354 -47.9726 0.977577 -0.21058 1 0.5 0 1
71 1 22.8292 17.3277 0 22.8292 17.3277 0 -604.506 267.228 122.011 -17.4447 0.271667 -0.962391 1 0.5 0 1
72 1 4.08533 56.0024 0 4.08533 56.0024 0 -69.6262 -176.66 -164.985 55.5336 -0.351719 -0.936105 1 0.5 0 1
73 1 43.1425 4.8142 0 43.1425 4.8142 0 26.9876 -109.274 -57.3808 81.899 -0.573808 0.81899 1 0.5 0 1
74 1 4.61347 73.869 0 83.8795 73.869 0 182.505 644.527 69.11 72.2759 0.6911 0.722759 1 0.5 0 1
75 1 0.556254 35.4851 0 0.556254 35.4851 0 47.675 -199.246 62.4718 -163.992 -0.942498 0.334212 1 0.5 0 1
76 1 60.9146 30.4504 0 -18.3514 30.4504 0 313.491 95.8879 -57.6091 -86.0178 -0.97649 0.215562 1 0.5 0 1
77 1 2.99782 31.9356 0 2.99782 31.9356 0 -414.507 77.9503 -2.66768 -115.625 0.88941 0.45711 1 0.5 0 1
78 1 14.4157 60.813 0 14.4157 60.813 0 193.637 806.667 -97.5145 -11.2624 0.879958 0.475052 1 0.5 0 1
79 1 22.6248 1.38789 0 22.6248 80.6539 0 -69.6161 92.361 29.347 -38.7315 -0.965711 -0.25962 1 0.5 0 1
80 1 5.12447 22.187 0 5.12447 -57.079 0 -322.93 -113.709 -81.7357 70.5026 -0.993645 0.112559 1 0.5 0 1
81 1 50.7828 33.5596 0 130.049 33.5596 0 306.292 273.383 95.6362 66.1937 0.242338 -0.970192 1 0.5 0 1
82 1 5.09348 36.7817 0 5.09348 36.7817 0 -349.987 785.418 -214.004 -16.7336 0.372385 0.928078 1 0.5 0 1
83 1 67.1933 67.9529 0 67.1933 67.9529 0 265.712 69.8785 68.9699 25.3158 0.996414 0.0846104 1 0.5 0 1
84 1 0.308703 42.8554 0 0.308703 42.8554 0 12.2758 628.861 7.56887 -100.681 -0.143089 -0.98971 1 0.5 0 1
85 1 25.4347 61.5778 0 25.4347 -17.6882 0 310.381 -225.406 -104.571 -114.704 0.86602 -0.500009 1 0.5 0 1
86 1 12.4942 22.4741 0 12.4942 22.4741 0 785.043 168.803 42.2949 -8.81275 0.415701 0.909501 1 0.5 0 1
87 1 33.6569 46.3357 0 33.6569 46.3357 0 506.681 -1023.66 102.501 -20.8471 -0.875285 0.483607 1 0.5 0 1
88 1 33.425 35.2081 0 33.425 35.2081 0 335.2 7.69186 -74.3505 -66.873 -0.743505 -0.66873 1 0.5 0 1
89 1 25.9431 67.7064 0 25.9431 67.7064 0 377.763 600.621 106.748 -53.6978 0.897079 -0.44187 1 0.5 0 1
90 1 8.49544 34.65 0 8.49544 34.65 0 52.1501 366.691 26.5904 -283.762 -0.798088 -0.60254 1 0.5 0 1
91 1 15.4323 56.564 0 15.4323 -22.702 0 -38.4298 -548.932 25.7581 -67.0748 0.830081 -0.557643 1 0.5 0 1
92 1 3.85407 52.9077 0 3.85407 52.9077 0 -485.412 225.781 -93.7206 108.143 -0.944022 0.329883 1 0.5 0 1
93 1 4.58817 43.2315 0 4.58817 43.2315 0 -1018.58 163.957 87.2002 184.869 -0.371843 0.928296 1 0.5 0 1
94 1 74.4082 33.8945 0 74.4082 33.8945 0 252.425 345.625 -1.20368 131.034 0.901958 0.431824 1 0.5 0 1
95 1 69.52 45.5407 0 69.52 45.5407 0 497.637 -378.848 -30.4677 390.586 0.966531 -0.25655 1 0.5 0 1
96 1 57.3603 38.2724 0 57.3603 38.2724 0 527.765 -881.967 52.7817 -233.997 0.962546 0.271117 1 0.5 0 1
97 1 58.1838 30.1805 0 58.1838 30.1805 0 -248.451 -694.662 -104.758 112.855 -0.603056 -0.797699 1 0.5 0 1
98 1 20.8066 22.7165 0 20.8066 101.982 0 344.036 -554.721 63.2431 117.703 0.86138 0.507961 1 0.5 0 1
99 1 43.4238 75.4227 0 43.4238 -3.84333 0 613.778 -12.2967 -55.0961 -76.9541 -0.398399 -0.917212 1 0.5 0 1
100 1 76.0205 41.1072 0 76.0205 41.1072 0 -107.483 217.795 -155.51 -107.042 0.0986564 -0.995122 1 0.5 0 1
101 1 46.4078 62.8776 0 46.4078 -16.3884 0 -360.775 -53.959 -25.1625 -56.0032 0.213199 -0.977009 1 0.5 0 1
102 1 2.70436 40.3198 0 2.70436 40.3198 0 -329.177 537.337 -177.8 -87.0908 -0.998813 -0.0487052 1 0.5 0 1
103 1 71.4609 78.2933 0 -7.80509 78.2933 0 -89.3579 29.4219 -91.1332 51.5967 -0.821535 0.570158 1 0.5 0 1
104 1 56.7674 39.8899 0 56.7674 119.156 0 354.345 609.609 8.76462 37.681 0.518215 0.85525 1 0.5 0 1
105 1 42.497 58.2023 0 -36.769 -21.0637 0 287.644 137.525 -37.8348 87.801 -0.166243 0.986085 1 0.5 0 1
106 1 8.62837 26.3078 0 8.62837 26.3078 0 -18.1092 179.227 -44.016 -62.2355 -0.126838 -0.991923 1 0.5 0 1
107 1 66.9392 32.8979 0 66.9392 32.8979 0 95.8629 -465.341 45.9404 167.701 -0.807773 0.589493 1 0.5 0 1
108 1 4.04152 34.3476 0 4.04152 113.614 0 914.413 120.975 -111.829 -49.6917 0.0442577 0.99902 1 0.5 0 1
109 1 61.5414 65.9919 0 -17.7246 65.9919 0 -446.486 -218.358 -84.901 -35.7706 -0.938089 0.346394 1 0.5 0 1
110 1 33.2768 33.0933 0 33.2768 33.0933 0 61.2973 517.991 99.9813 -1.93428 0.999813 -0.0193428 1 0.5 0 1
111 1 43.8264 32.1598 0 43.8264 32.1598 0 -1023.97 302.516 39.3538 96.2845 0.396011 0.918246 1 0.5 0 1
112 1 12.5824 45.7619 0 12.5824 45.7619 0 659.306 346.278 -64.4307 -23.995 -0.859092 0.51182 1 0.5 0 1
113 1 41.4564 36.2907 0 -37.8096 36.2907 0 336.898 249.356 2.89467 99.9581 0.0289467 0.999581 1 0.5 0 1
114 1 36.6041 52.04 0 36.6041 52.04 0 787.504 112.645 44.573 66.065 0.661873 0.749616 1 0.5 0 1
115 1 52.8581 10.819 0 -26.4079 10.819 0 -985.159 -1082.5 -96.7022 25.4694 -0.967022 0.254694 1 0.5 0 1
116 1 29.2459 71.1151 0 29.2459 -8.15087 0 -355.142 -169.757 128.688 -17.5521 0.0559364 -0.998434 1 0.5 0 1
117 1 46.2365 56.156 0 46.2365 56.156 0 -715.218 -384.691 -83.8193 40.0914 -0.949102 -0.314968 1 0.5 0 1
118 1 58.1122 37.6145 0 58.1122 37.6145 0 212.38 328.154 91.3791 330.73 0.490485 -0.871449 1 0.5 0 1
119 1 52.4038 15.7702 0 52.4038 15.7702 0 -361.202 118.467 -19.4954 -9.76359 0.90403 -0.427469 1 0.5 0 1
120 1 23.0186 20.2717 0 102.285 20.2717 0 -474.231 269.273 26.2268 -10.9064 0.892444 0.451158 1 0.5 0 1
121 1 25.674 16.7458 0 -53.592 16.7458 0 903.09 -933.766 -73.3322 -69.5866 0.120075 -0.992765 1 0.5 0 1
122 1 43.1354 14.3191 0 43.1354 93.5851 0 -68.854 -140.995 14.9463 98.8767 0.149463 0.988767 1 0.5 0 1
123 1 0.170462 28.5688 0 0.170462 28.5688 0 -34.6787 -421.752 -39.0398 366.319 -0.034882 0.999391 1 0.5 0 1
124 1 40.2703 51.7625 0 40.2703 51.7625 0 -254.514 -374.501 -29.6565 11.098 -0.902728 0.430211 1 0.5 0 1
125 1 66.7387 24.1682 0 66.7387 24.1682 0 -334.343 481.669 -102.773 -93.4836 0.62093 0.783866 1 0.5 0 1
126 1 12.7268 14.4583 0 91.9928 93.7243 0 31.9631 602.71 45.607 98.8599 0.713123 0.701039 1 0.5 0 1
127 1 62.8814 26.1573 0 62.8814 105.423 0 -427.404 -129.924 -34.1881 -87.5966 0.938471 0.345359 1 0.5 0 1
128 1 19.7489 39.4302 0 -59.5171 39.4302 0 160.1 555.979 -83.8718 -54.4565 -0.838718 -0.544565 1 0.5 0 1
129 1 68.2801 54.3049 0 68.2801 -24.9611 0 630.743 -639.532 41.7654 -26.3238 0.915186 -0.403032 1 0.5 0 1
130 1 74.4482 53.4948 0 74.4482 -25.7712 0 681.52 701.017 14.9851 -264.127 -0.154738 -0.987956 1 0.5 0 1
131 1 63.2357 74.6021 0 -16.0303 74.6021 0 -144.76 -314.579 -57.5864 81.7546 -0.575864 0.817546 1 0.5 0 1
132 1 66.3105 27.1269 0 -12.9555 106.393 0 -254.402 -292.904 -80.7763 -114.393 0.0939933 0.995573 1 0.5 0 1
133 1 58.9243 30.895 0 58.9243 110.161 0 -7.41974 -672.92 -25.4709 -7.92194 -0.300485 0.953786 1 0.5 0 1
134 1 32.8682 60.3725 0 32.8682 60.3725 0 -10.5095 581.637 75.4286 -23.9227 0.0880393 -0.996117 1 0.5 0 1
135 1 39.4878 32.0908 0 39.4878 111.357 0 -245.069 -32.8013 -59.3162 80.5083 -0.593162 0.805083 1 0.5 0 1
136 1 35.9803 39.97 0 35.9803 119.236 0 452.392 -829.147 -3.14287 43.7297 -0.829578 -0.558391 1 0.5 0 1
137 1 42.9062 48.9497 0 122.172 48.9497 0 529.991 -360.12 13.5577 81.9109 0.143496 0.989651 1 0.5 0 1
138 1 22.2586 5.34063 0 22.2586 5.34063 0 114.297 372.271 -84.0968 86.2219 -0.960355 0.278779 1 0.5 0 1
139 1 34.3785 62.72 0 34.3785 -16.546 0 334.815 -408.157 41.9854 125.175 -0.998649 -0.051968 1 0.5 0 1
140 1 27.8723 78.846 0 27.8723 -0.420045 0 105.905 219.864 41.0319 -21.6064 -0.998933 -0.046175 1 0.5 0 1
141 1 10.7352 51.9002 0 10.7352 51.9002 0 -925.242 361.544 128.305 -3.52578 -0.72145 -0.692467 1 0.5 0 1
142 1 18.4782 62.6603 0 18.4782 62.6603 0 -478.157 -145.702 -30.9848 253.97 -0.88611 0.463474 1 0.5 0 1
143 1 15.205 37.2455 0 15.205 116.512 0 -714.992 206.224 -93.7978 34.6696 -0.937978 0.346696 1 0.5 0 1
144 1 54.0054 48.2581 0 54.0054 -31.0079 0 -127.481 -743.635 -44.4131 -31.1981 -0.201119 -0.979567 1 0.5 0 1
145 1 64.1724 12.7961 0 64.1724 92.0621 0 -409.964 -48.5692 158.641 -10.9597 0.527267 0.8497 1 0.5 0 1
146 1 26.5835 77.609 0 26.5835 -1.65701 0 636.393 -483.311 70.4317 80.7328 0.0189717 -0.99982 1 0.5 0 1
147 1 71.7124 65.6917 0 71.7124 -13.5743 0 -230.96 394.199 60.1281 -31.7694 0.158922 -0.987291 1 0.5 0 1
148 1 15.3867 12.761 0 94.6527 12.761 0 -159.014 -188.226 54.521 122.641 0.815438 -0.578844 1 0.5 0 1
149 1 76.8341 28.2855 0 76.8341 107.551 0 -577.66 -212.602 -1.78708 153.117 0.795478 0.605983 1 0.5 0 1
150 1 71.4343 32.8822 0 -7.83174 32.8822 0 -339.327 -424.73 239.597 123.023 -0.294884 0.955533 1 0.5 0 1
151 1 3.10125 55.5927 0 82.3673 -23.6733 0 -459.032 5.607 143.527 52.0378 0.640155 -0.768246 1 0.5 0 1
152 1 24.0073 46.0955 0 24.0073 125.361 0 306.29 -11.3054 -71.239 9.1949 0.765984 0.64286 1 0.5 0 1
153 1 76.1807 57.526 0 76.1807 57.526 0 439.705 1330.8 -13.329 -122.382 0.697318 -0.716762 1 0.5 0 1
154 1 4.77656 47.2268 0 4.77656 47.2268 0 356.653 -227.011 -27.8606 55.028 0.398879 -0.917003 1 0.5 0 1
155 1 18.007 12.7934 0 -61.259 12.7934 0 60.4083 -320.674 -153.394 -79.3716 -0.958527 0.285003 1 0.5 0 1
156 1 76.3716 45.9337 0 76.3716 45.9337 0 654.457 357.529 -63.629 51.5407 -0.589452 0.807804 1 0.5 0 1
157 1 70.7962 17.9093 0 -8.46977 17.9093 0 430.793 -648.527 -115.329 117.028 -0.0824174 0.996598 1 0.5 0 1
158 1 71.0875 36.2663 0 -8.17854 36.2663 0 -845.946 -78.494 136.218 77.5593 -0.915977 0.40123 1 0.5 0 1
159 1 70.2161 13.3681 0 70.2161 92.6341 0 -1153.27 252.503 152.09 -93.588 -0.827058 0.562117 1 0.5 0 1
160 1 28.652 75.4068 0 28.652 -3.85922 0 304.286 215.507 -50.1608 55.4939 -0.655275 0.75539 1 0.5 0 1
161 1 7.79304 67.8145 0 7.79304 -11.4515 0 -35.3844 -298.826 105.709 -36.9735 0.939596 -0.342285 1 0.5 0 1
162 1 7.2909 48.7702 0 7.2909 48.7702 0 -94.661 -171.393 81.7209 13.894 -0.929033 -0.369996 1 0.5 0 1
163 1 66.0123 45.5053 0 66.0123 45.5053 0 630.307 -305.713 -109.798 98.1309 0.175085 -0.984553 1 0.5 0 1
164 1 30.1076 45.865 0 30.1076 45.865 0 -538.224 343.072 -22.0971 -118.841 0.33884 -0.940844 1 0.5 0 1
165 1 42.4854 53.8994 0 42.4854 -25.3666 0 -135.089 102.132 -63.0073 -76.8684 -0.747655 -0.664088 1 0.5 0 1
166 1 13.3346 42.1731 0 13.3346 42.1731 0 -594.914 -393.907 158.699 -1.35987 -0.605664 -0.795721 1 0.5 0 1
167 1 62.4343 21.6518 0 62.4343 21.6518 0 -329.837 259.96 84.6342 25.8906 0.393975 -0.919121 1 0.5 0 1
168 1 21.2599 12.7144 0 21.2599 91.9804 0 28.835 -596.687 100.89 -8.94777 -0.915512 0.402291 1 0.5 0 1
169 1 27.5128 37.5779 0 27.5128 116.844 0 -100.756 -12.4579 -18.0574 -4.49643 -0.817712 0.575627 1 0.5 0 1
170 1 0.186839 9.44612 0 79.4528 88.7121 0 -593.985 288.54 97.2289 23.3782 0.972289 0.233782 1 0.5 0 1
171 1 21.3138 32.6498 0 100.58 32.6498 0 -498.224 -923.006 104.733 135.253 0.873877 0.486148 1 0.5 0 1
172 1 8.9861 51.8577 0 8.9861 -27.4083 0 -981.039 656.175 117.944 68.1879 -0.943477 -0.331437 1 0.5 0 1
173 1 37.5441 68.9551 0 37.5441 -10.3109 0 361.166 -530.98 -18.3948 -51.6809 -0.694843 -0.719161 1 0.5 0 1
174 1 9.84602 49.3247 0 9.84602 49.3247 0 -965.366 430.759 93.9594 40.4093 -0.966749 0.255726 1 0.5 0 1
175 1 23.1845 11.7627 0 23.1845 11.7627 0 -668.477 -540.148 11.807 47.8641 -0.607098 0.794627 1 0.5 0 1
176 1 11.6683 47.2792 0 11.6683 47.2792 0 224.878 -709.026 -55.7369 -23.5866 -0.783474 -0.621425 1 0.5 0 1
177 1 26.8072 10.5012 0 26.8072 89.7672 0 536.328 347.113 12.2773 -76.8698 -0.905548 0.424244 1 0.5 0 1
178 1 61.4999 23.3271 0 -17.7661 102.593 0 409.681 407.427 -89.959 -72.4606 -0.393833 0.919182 1 0.5 0 1
179 1 4.70319 53.3971 0 4.70319 -25.8689 0 326.337 175.937 -2.86817 37.1284 -0.882536 -0.470245 1 0.5 0 1
180 1 77.5408 39.0304 0 77.5408 39.0304 0 -334.981 110.884 138.138 58.7646 -0.0296653 0.99956 1 0.5 0 1
181 1 55.2446 23.7547 0 55.2446 23.7547 0 146.222 -146.992 56.4419 13.6519 -0.971714 -0.236162 1 0.5 0 1
182 1 13.2951 27.5527 0 13.2951 106.819 0 752.273 306.472 99.2177 -0.485365 -0.230623 -0.973043 1 0.5 0 1
183 1 60.1281 52.2103 0 60.1281 -27.0557 0 22.2131 -112.725 -11.9175 55.724 0.992876 -0.119155 1 0.5 0 1
184 1 67.0568 39.1906 0 67.0568 39.1906 0 144.51 166.862 47.3736 -301.05 -0.615099 0.78845 1 0.5 0 1
185 1 14.1329 37.584 0 14.1329 37.584 0 304.778 19.3038 -22.0521 -49.9807 -0.595264 0.80353 1 0.5 0 1
186 1 19.6526 58.792 0 19.6526 58.792 0 -35.1598 -365.685 44.7107 55.8847 -0.745953 0.665998 1 0.5 0 1
187 1 63.0479 31.3025 0 -16.2181 110.569 0 619.278 582.198 35.0012 45.0854 -0.195458 0.980712 1 0.5 0 1
188 1 13.89 65.8009 0 93.156 65.8009 0 517.561 193.437 57.637 12.4129 0.733973 0.679179 1 0.5 0 1
189 1 20.7582 15.5574 0 20.7582 15.5574 0 72.6161 -28.3902 -71.0535 -39.0004 0.696221 0.717828 1 0.5 0 1
190 1 60.6728 75.5032 0 -18.5932 75.5032 0 -92.928 25.539 3.8325 -28.9363 -0.941438 -0.337185 1 0.5 0 1
191 1 48.9145 9.49155 0 128.18 9.49155 0 -782.303 426.534 14.0678 13.6523 0.995941 0.0900112 1 0.5 0 1
192 1 64.5748 34.5994 0 64.5748 34.5994 0 680.243 -381.442 124.241 163.411 -0.0744808 -0.997222 1 0.5 0 1
193 1 47.2291 11.3747 0 -32.0369 11.3747 0 -198.481 -366.644 -82.8353 -8.35852 -0.889259 0.457404 1 0.5 0 1
194 1 31.5123 61.5409 0 31.5123 61.5409 0 -48.3653 -18.4651 -75.9453 -9.21812 -0.74779 -0.663935 1 0.5 0 1
195 1 56.9431 24.1238 0 56.9431 24.1238 0 -452.427 229.436 10.3506 -82.3874 -0.963306 0.268407 1 0.5 0 1
196 1 62.4343 37.4305 0 62.4343 37.4305 0 172.104 509.619 312.164 98.5807 -0.564311 -0.825562 1 0.5 0 1
197 1 70.9525 58.6161 0 -8.3135 58.6161 0 -434.794 -425.471 -48.5972 28.8443 -0.524773 -0.851242 1 0.5 0 1
198 1 76.9994 42.489 0 76.9994 42.489 0 647.29 -190.592 -202.153 2.69447 -0.92393 -0.382562 1 0.5 0 1
199 1 67.3167 0.0938483 0 -11.9493 0.0938483 0 -54.255 -838.768 -43.4006 14.5496 -0.357137 -0.934052 1 0.5 0 1
200 1 25.3192 70.1844 0 25.3192 70.1844 0 489.296 235.44 205.435 -24.8261 0.240188 0.970726 1 0.5 0 1
201 1 6.67645 58.0105 0 6.67645 -21.2555 0 -89.0754 -751.128 -33.1212 65.5859 -0.154892 0.987931 1 0.5 0 1
202 1 59.7453 56.1342 0 -19.5207 -23.1318 0 -466.097 348.471 20.4074 15.5512 -0.106969 -0.994262 1 0.5 0 1
203 1 67.143 74.8298 0 -12.123 74.8298 0 502.785 -194.601 -140.987 -1.25268 -0.933975 -0.357339 1 0.5 0 1
204 1 42.5608 8.37025 0 42.5608 8.37025 0 415.853 -67.618 89.5857 -44.4342 0.895857 -0.444342 1 0.5 0 1
205 1 27.6932 56.3694 0 27.6932 56.3694 0 349.592 33.2281 68.8874 89.4029 -0.998125 -0.0612136 1 0.5 0 1
206 1 1.37989 56.1746 0 1.37989 -23.0914 0 -564.22 675.453 -1.89809 -51.9043 -0.647971 -0.761665 1 0.5 0 1
207 1 16.7929 70.2675 0 16.7929 70.2675 0 -148.298 352.84 -18.266 -54.2007 0.64688 0.762592 1 0.5 0 1
208 1 38.7123 46.8867 0 38.7123 46.8867 0 229.579 -593.817 -43.7946 52.6755 -0.460465 -0.887678 1 0.5 0 1
209 1 39.2226 75.4578 0 39.2226 75.4578 0 257.632 472.555 -81.5461 86.6741 0.260372 0.965508 1 0.5 0 1
210 1 66.9793 63.0598 0 -12.2867 63.0598 0 508.98 -999.262 -132.59 -67.8933 -0.244946 -0.969537 1 0.5 0 1
211 1 64.4621 39.1298 0 64.4621 39.1298 0 700.285 328.858 46.1501 -31.5791 0.815285 -0.57906 1 0.5 0 1
212 1 44.1893 70.4688 0 123.455 -8.79719 0 -429.082 345.762 41.6564 8.14781 0.999989 0.00466136 1 0.5 0 1
213 1 67.3257 59.958 0 67.3257 59.958 0 -39.0716 -105.561 27.5487 72.9492 0.992499 0.122249 1 0.5 0 1
214 1 59.7975 23.0992 0 59.7975 102.365 0 -424.616 -394.844 17.3489 78.7636 0.765411 -0.643542 1 0.5 0 1
215 1 23.4433 73.3081 0 23.4433 -5.95794 0 72.5746 223.652 146.54 63.0871 0.981312 -0.192422 1 0.5 0 1
216 1 27.5356 44.5492 0 27.5356 123.815 0 -458.324 -375.342 -116.268 183.24 -0.124973 0.99216 1 0.5 0 1
217 1 57.9717 76.2049 0 57.9717 -3.06106 0 568.076 -236.701 72.8371 -13.9504 0.990123 0.1402 1 0.5 0 1
218 1 49.1173 47.0955 0 49.1173 47.0955 0 -98.6802 -335.474 51.6181 -24.9467 0.84613 -0.532977 1 0.5 0 1
219 1 55.9209 40.378 0 55.9209 40.378 0 -232.564 451.342 26.5284 -57.9634 0.953059 -0.302784 1 0.5 0 1
220 1 46.2714 59.6511 0 46.2714 -19.6149 0 319.636 -141.972 -79.4074 -50.6589 -0.984223 -0.17693 1 0.5 0 1
221 1 43.2921 15.8105 0 43.2921 95.0765 0 373.998 234.432 -9.25669 99.5706 -0.0925669 0.995706 1 0.5 0 1
222 1 29.8801 46.8493 0 29.8801 -32.4167 0 185.98 444.42 13.0786 48.4447 0.737087 -0.675798 1 0.5 0 1
223 1 76.2659 34.6844 0 -3.0001 34.6844 0 -394.881 -27.6626 -37.6933 135.95 -0.250357 0.968154 1 0.5 0 1
224 1 74.4242 59.5301 0 -4.84182 59.5301 0 368.993 -763.907 61.443 0.30064 0.654615 -0.755962 1 0.5 0 1
225 1 17.469 56.4859 0 96.735 -22.7801 0 29.0382 -244.892 -34.0523 81.4605 0.854901 0.518792 1 0.5 0 1
226 1 30.1733 66.3205 0 30.1733 -12.9455 0 714.135 162.588 -36.0456 -49.829 -0.68951 -0.724276 1 0.5 0 1
227 1 4.83377 32.8028 0 84.0998 32.8028 0 224.335 -178.154 -29.1095 -67.5625 0.0573094 0.998356 1 0.5 0 1
228 1 59.1676 63.6323 0 -20.0984 63.6323 0 -501.108 -236.221 -88.9765 -45.6418 -0.889765 -0.456418 1 0.5 0 1
229 1 55.3159 36.3734 0 55.3159 36.3734 0 613.961 171.67 -11.5961 -11.6514 0.541321 0.840816 1 0.5 0 1
230 1 56.0436 34.8487 0 56.0436 114.115 0 -81.6088 930.262 -95.0573 96.8804 -0.694879 0.719127 1 0.5 0 1
231 1 68.9802 8.70617 0 68.9802 87.9722 0 -96.7878 -1026.75 -12.2312 99.2492 -0.122312 0.992492 1 0.5 0 1
232 1 52.1748 32.7274 0 52.1748 -46.5386 0 129.777 -359.947 123.937 20.853 0.925221 -0.379429 1 0.5 0 1
233 1 9.79421 42.176 0 9.79421 42.176 0 -455.757 2.57694 -72.1773 -59.3521 -0.469073 -0.883159 1 0.5 0 1
234 1 26.2166 58.6376 0 26.2166 -20.6284 0 898.557 585.625 56.6782 -42.9765 -0.923424 0.383781 1 0.5 0 1
235 1 22.8229 64.0931 0 22.8229 64.0931 0 -308.808 220.749 78.0443 -74.2667 0.0387192 0.99925 1 0.5 0 1
236 1 18.5144 75.9422 0 97.7804 75.9422 0 -772.511 451.521 17.7537 -95.2369 0.993643 -0.112574 1 0.5 0 1
237 1 56.0088 24.4631 0 56.0088 24.4631 0 159.309 204.535 -12.8402 -55.1893 0.944798 0.327653 1 0.5 0 1
238 1 59.8324 2.58959 0 59.8324 81.8556 0 -637.213 -70.8967 -48.5089 15.587 0.485037 0.874493 1 0.5 0 1
239 1 6.97891 38.6878 0 86.2449 38.6878 0 988.413 -685.564 -200.931 -27.8721 0.987368 0.158441 1 0.5 0 1
240 1 46.2349 25.4252 0 46.2349 25.4252 0 174.928 -44.1362 81.2769 14.2002 0.570594 -0.821233 1 0.5 0 1
241 1 51.7623 35.3407 0 51.7623 35.3407 0 62.7448 -87.3173 -44.596 5.48913 0.0948188 -0.995495 1 0.5 0 1
242 1 78.6115 62.4132 0 78.6115 -16.8528 0 -117.002 94.8627 111.329 15.1023 0.35812 -0.933676 1 0.5 0 1
243 1 63.2273 8.17238 0 -16.0387 87.4384 0 365.298 48.2877 -62.3257 84.9995 -0.660243 0.751052 1 0.5 0 1
244 1 43.4944 72.3956 0 43.4944 72.3956 0 -487.27 -67.0187 -31.7348 50.9068 -0.0201133 0.999798 1 0.5 0 1
245 1 58.0277 46.4187 0 58.0277 46.4187 0 185.32 298.056 -47.5256 -106.015 -0.131966 -0.991254 1 0.5 0 1
246 1 52.8662 37.9449 0 52.8662 37.9449 0 373.711 -655.183 -38.3202 4.69358 0.559906 -0.828556 1 0.5 0 1
247 1 68.9651 50.8617 0 68.9651 -28.4043 0 725.675 414.095 -76.4222 -168.099 -0.7919 -0.610651 1 0.5 0 1
248 1 43.8881 31.0463 0 -35.3779 110.312 0 -351.046 9.81516 -60.0021 75.3524 -0.602493 0.798124 1 0.5 0 1
249 1 69.3028 19.2357 0 69.3028 19.2357 0 -425.362 -162.424 165.417 136.627 0.990043 0.140762 1 0.5 0 1
250 1 15.6431 67.266 0 94.9091 67.266 0 236.512 -80.8329 -138.552 139.805 0.803469 0.595347 1 0.5 0 1
251 1 38.556 62.122 0 38.556 141.388 0 -623.968 12.1959 -0.556578 100.319 0.0276132 0.999619 1 0.5 0 1
252 1 24.1637 66.6748 0 24.1637 66.6748 0 -87.6204 200.633 -70.9476 138.979 -0.153387 0.988166 1 0.5 0 1
253 1 21.6621 58.1654 0 21.6621 58.1654 0 220.277 -258.209 9.08231 133.423 0.993323 -0.115364 1 0.5 0 1
254 1 47.663 27.913 0 47.663 107.179 0 -98.357 -615.733 -17.5542 72.5073 0.362018 0.932171 1 0.5 0 1
255 1 5.65481 31.181 0 84.9208 110.447 0 -668.862 -806.674 310.367 186.293 -0.984173 0.177211 1 0.5 0 1
256 1 72.3967 39.4974 0 -6.86926 39.4974 0 423.624 -423.307 32.2259 -206.538 0.283229 -0.959052 1 0.5 0 1
257 1 11.2881 35.1162 0 11.2881 114.382 0 168.646 152.633 -45.2483 -214.826 -0.692297 0.721613 1 0.5 0 1
258 1 38.5192 48.9606 0 38.5192 -30.3054 0 383.271 143.906 56.4254 103.619 -0.811676 -0.584108 1 0.5 0 1
259 1 18.9063 43.2533 0 98.1723 43.2533 0 251.019 684.254 -25.017 96.8202 -0.25017 0.968202 1 0.5 0 1
260 1 28.9276 17.7239 0 108.194 17.7239 0 -326.046 129.264 89.6193 -44.3664 0.896193 -0.443664 1 0.5 0 1
261 1 69.1369 0.8061 0 -10.1291 0.8061 0 -95.3503 458.386 -42.0987 33.5815 -0.99469 0.102921 1 0.5 0 1
262 1 70.127 68.1002 0 149.393 -11.1658 0 -536.581 -495.435 52.8957 104.048 -0.21893 -0.975741 1 0.5 0 1
263 1 31.63 72.8289 0 -47.636 -6.43706 0 468.977 -613.918 -24.0694 -16.2329 -0.829388 -0.558673 1 0.5 0 1
264 1 38.2938 23.117 0 117.56 23.117 0 -927.037 139.355 -93.0356 -83.44 0.907161 -0.420783 1 0.5 0 1
265 1 37.9603 21.4595 0 37.9603 100.725 0 217.431 281.806 -6.63337 48.764 0.459575 0.888139 1 0.5 0 1
266 1 57.0473 47.9055 0 57.0473 47.9055 0 -86.9782 760.04 32.9364 8.68432 0.203784 -0.979016 1 0.5 0 1
267 1 73.8911 64.205 0 -5.37494 -15.061 0 636.754 -93.4449 30.8043 -36.7748 -0.243132 -0.969993 1 0.5 0 1
268 1 66.578 57.559 0 66.578 57.559 0 -205.338 -322.318 122.465 -16.9786 0.864457 -0.502707 1 0.5 0 1
269 1 47.1719 23.6042 0 126.438 23.6042 0 -142.769 283.519 8.13404 -13.9907 -0.60793 0.793991 1 0.5 0 1
270 1 44.8085 61.1319 0 124.075 -18.1341 0 -274.185 -1237.1 -18.687 -91.3832 0.35417 -0.935181 1 0.5 0 1
271 1 54.5073 23.0751 0 54.5073 23.0751 0 -182.921 195.305 1.93659 2.56325 0.767816 -0.64067 1 0.5 0 1
272 1 54.3219 34.8168 0 54.3219 34.8168 0 1007.32 -396.688 -51.0225 58.5375 0.730508 0.682904 1 0.5 0 1
273 1 61.6171 46.208 0 61.6171 46.208 0 8.95966 335.367 -18.5295 114.791 0.49091 -0.87121 1 0.5 0 1
274 1 12.5071 51.9699 0 12.5071 -27.2961 0 -414.96 67.4783 -67.6342 -81.5364 -0.660787 -0.750573 1 0.5 0 1
275 1 9.64084 70.8731 0 88.9068 -8.39289 0 -3.93964 655.934 18.7368 -81.5819 -0.0918424 -0.995774 1 0.5 0 1
276 1 61.3669 41.5067 0 61.3669 41.5067 0 794.341 -78.8721 17.6352 -66.9107 0.849318 -0.527881 1 0.5 0 1
277 1 36.8429 24.7322 0 -42.4231 24.7322 0 -419.814 662.77 -31.9829 -25.0551 -0.800234 -0.599687 1 0.5 0 1
278 1 54.5707 5.37526 0 -24.6953 84.6413 0 666.091 265.638 -67.997 34.2932 -0.919835 -0.392304 1 0.5 0 1
279 1 32.4012 24.7854 0 111.667 24.7854 0 760.171 191.342 99.0882 13.473 0.990882 0.13473 1 0.5 0 1
280 1 49.8495 51.2761 0 49.8495 -27.9899 0 116.653 438.113 20.7382 -97.826 0.207382 -0.97826 1 0.5 0 1
281 1 69.1527 53.7557 0 69.1527 53.7557 0 -239.45 48.0958 -55.0955 -7.758 0.671048 -0.741414 1 0.5 0 1
282 1 49.9187 45.2623 0 49.9187 -34.0037 0 -1586.66 -339.695 28.5997 -50.7853 0.742812 -0.6695 1 0.5 0 1
283 1 74.2117 28.4 0 -5.05426 107.666 0 4.46572 -239.211 150.883 -164.501 0.961814 0.273704 1 0.5 0 1
284 1 70.0532 18.5637 0 -9.21276 97.8297 0 -541.849 141.148 -9.37905 120.639 0.89117 0.45367 1 0.5 0 1
285 1 70.3749 31.5864 0 70.3749 31.5864 0 -520.082 -290.29 94.9612 48.2804 0.939491 0.342573 1 0.5 0 1