ITEM: TIMESTEP
450000
ITEM: NUMBER OF ATOMS
4000
ITEM: BOX BOUNDS pp pp pp
0.0000000000000000e+00 7.9266000000000005e+01
0.0000000000000000e+00 7.9266000000000005e+01
-5.0000000000000000e-01 5.0000000000000000e-01
ITEM: ATOMS id type x y z xu yu zu vx vy fx fy mux muy mu radius omegaz mass
1 1 7.78009 64.9012 0 87.0461 64.9012 0 132.254 -616.664 103.845 71.4985 0.1633 -0.986576 1 0.5 0 1
2 1 60.8715 19.0244 0 60.8715 19.0244 0 231.589 -166.606 -141.06 -103.291 -0.373731 -0.927537 1 0.5 0 1
3 1 37.2367 35.2703 0 37.2367 -43.9957 0 162.085 -328.692 93.9837 34.1623 0.939837 0.341623 1 0.5 0 1
4 1 1.89643 17.0777 0 1.89643 17.0777 0 342.318 52.9715 33.4391 81.2954 -0.506032 0.862515 1 0.5 0 1
5 1 0.640747 32.3203 0 0.640747 32.3203 0 -396.097 283.691 -7.77291 1.24672 -0.876797 0.480861 1 0.5 0 1
6 1 68.0426 30.5246 0 -11.2234 30.5246 0 219.655 227.533 -59.5877 -103.086 0.581786 0.813342 1 0.5 0 1
7 1 67.1005 51.0519 0 67.1005 51.0519 0 238.988 -569.816 59.1232 -73.194 -0.298912 0.954281 1 0.5 0 1
8 1 15.8499 31.3865 0 15.8499 -47.8795 0 -725.632 -65.3777 11.2378 -23.3741 -0.930669 0.365863 1 0.5 0 1
9 1 66.5171 28.1973 0 66.5171 28.1973 0 -510.579 -772.44 23.1378 68.6506 -0.553011 0.833174 1 0.5 0 1
10 1 21.5535 53.2844 0 21.5535 53.2844 0 -123.988 -348.28 -20.395 105.744 -0.854982 -0.518658 1 0.5 0 1
11 1 65.9701 12.9921 0 -92.5619 12.9921 0 371.585 85.9715 -106.385 -41.0848 -0.495637 0.868529 1 0.5 0 1
12 1 77.8259 23.5152 0 77.8259 102.781 0 387.608 -964.544 99.7581 -135.384 -0.970208 -0.242274 1 0.5 0 1
13 1 77.9672 67.8748 0 77.9672 -11.3912 0 101.786 300.362 25.3288 70.7984 -0.966737 0.255773 1 0.5 0 1
14 1 14.5309 40.9007 0 -144.001 40.9007 0 35.3193 721.941 -21.5858 -260.413 -0.656195 0.754592 1 0.5 0 1
15 1 9.61996 36.1116 0 9.61996 36.1116 0 -426.874 27.4799 152.579 36.0426 -0.236889 0.971537 1 0.5 0 1
16 1 16.0974 51.3915 0 -63.1686 -27.8745 0 -798.447 -849.921 38.7536 3.0141 -0.95605 -0.293204 1 0.5 0 1
17 1 41.6181 41.5952 0 120.884 120.861 0 176.773 80.9956 -44.8447 196.919 0.258988 -0.96588 1 0.5 0 1
18 1 73.1915 74.8074 0 -6.0745 -4.45864 0 391.917 -581.15 36.6427 43.2861 0.735119 -0.677938 1 0.5 0 1
19 1 3.5874 43.3886 0 3.5874 43.3886 0 -28.8872 -204.953 -68.1234 -144.732 0.51793 0.855423 1 0.5 0 1
20 1 18.7781 58.2988 0 18.7781 58.2988 0 -839.401 142.565 39.0378 -41.7461 0.348142 -0.937442 1 0.5 0 1
21 1 1.55536 29.0063 0 1.55536 29.0063 0 367.591 -1004.31 194.073 106.896 -0.728159 0.685408 1 0.5 0 1
22 1 0.10828 22.1926 0 79.3743 22.1926 0 -412.969 388.613 74.2646 70.3889 -0.576785 -0.816896 1 0.5 0 1
23 1 41.6736 46.3789 0 120.94 46.3789 0 192.384 139.151 68.8285 30.6275 0.113121 -0.993581 1 0.5 0 1
24 1 66.9745 58.2153 0 66.9745 -21.0507 0 -260.029 727.745 43.4579 55.4807 0.665912 -0.74603 1 0.5 0 1
25 1 46.5252 30.2257 0 -32.7408 -49.0403 0 -226.04 -4.02953 26.8292 40.0509 0.412191 -0.911097 1 0.5 0 1
26 1 52.5029 62.3741 0 52.5029 -96.1579 0 -1002.92 554.361 -0.232388 73.0235 0.0369383 0.999318 1 0.5 0 1
27 1 72.6808 19.9905 0 -6.58516 99.2565 0 -397.65 -21.6123 61.9947 -105.634 -0.392519 -0.919744 1 0.5 0 1
28 1 9.82911 71.4786 0 9.82911 71.4786 0 -223.749 215.835 42.0282 82.5607 -0.984246 -0.176802 1 0.5 0 1
29 1 73.9814 39.5952 0 -5.28463 39.5952 0 574.979 -155.384 -48.7889 155.863 -0.883626 -0.468193 1 0.5 0 1
30 1 1.54421 11.4961 0 80.8102 90.7621 0 164.077 413.687 2.23665 -62.9706 0.409361 0.912373 1 0.5 0 1
31 1 72.4889 27.3494 0 -6.77709 27.3494 0 -328.614 639.22 90.4833 -218.98 0.664443 0.747339 1 0.5 0 1
32 1 2.091 18.1431 0 2.091 18.1431 0 451.916 -451.492 26.5128 -69.1927 0.81774 -0.575588 1 0.5 0 1
33 1 65.5121 59.6455 0 65.5121 -19.6205 0 338.933 91.004 236.159 -43.1685 0.0340584 -0.99942 1 0.5 0 1
34 1 6.71493 47.9513 0 85.9809 47.9513 0 63.4226 85.1267 -123.34 -29.2181 0.0787001 0.996898 1 0.5 0 1
35 1 43.2238 37.6615 0 -36.0422 37.6615 0 319.587 307.727 -71.6178 -61.3045 0.29278 0.95618 1 0.5 0 1
36 1 60.1584 59.8454 0 60.1584 -19.4206 0 -516.379 48.0485 89.2837 -55.9954 -0.00824127 0.999966 1 0.5 0 1
37 1 69.6115 43.7174 0 69.6115 43.7174 0 188.768 -245.376 -37.9838 253.608 -0.0287405 0.999587 1 0.5 0 1
38 1 0.792113 14.0937 0 159.324 93.3597 0 270.16 -170.103 17.523 -147.688 0.90432 0.426856 1 0.5 0 1
39 1 7.60588 25.018 0 86.8719 -54.248 0 138.694 -62.2733 -101.261 -9.81562 0.966749 -0.255727 1 0.5 0 1
40 1 56.2234 18.5229 0 -23.0426 97.7889 0 -147.183 333.094 -113.843 57.5679 0.956298 0.292392 1 0.5 0 1
41 1 69.5291 53.5213 0 69.5291 53.5213 0 -290.168 -361.52 32.9055 -159.127 0.438772 -0.898598 1 0.5 0 1
42 1 75.6122 60.8555 0 -3.6538 60.8555 0 519.308 705.355 -169.522 46.0316 0.547445 -0.836842 1 0.5 0 1
43 1 78.2775 16.2158 0 -80.2545 95.4818 0 -346.366 341.307 77.7019 -16.1933 -0.339282 -0.940685 1 0.5 0 1
44 1 64.0081 20.8628 0 64.0081 100.129 0 -298.937 264.385 -53.5623 8.99223 0.77639 0.630253 1 0.5 0 1
45 1 18.9255 63.3135 0 18.9255 -95.2185 0 366.038 620.143 9.48942 115.214 -0.543088 -0.839676 1 0.5 0 1
46 1 4.76848 44.6758 0 4.76848 44.6758 0 19.784 442.152 333.8 -131.248 -0.375523 -0.926813 1 0.5 0 1
47 1 58.9039 62.1957 0 58.9039 -17.0703 0 -348.502 413.478 6.07583 -226.684 -0.963484 0.267765 1 0.5 0 1
48 1 12.7665 47.1924 0 12.7665 47.1924 0 -317.283 -405.005 53.198 -55.3767 0.990223 -0.139494 1 0.5 0 1
49 1 40.6968 56.5562 0 40.6968 56.5562 0 106.126 -256.687 24.4985 88.526 0.613027 -0.790062 1 0.5 0 1
50 1 55.2254 18.208 0 -24.0406 18.208 0 -653.548 -88.9693 195.879 -45.8593 0.9615 0.274804 1 0.5 0 1
51 1 48.8442 72.488 0 -109.688 -6.77799 0 569.987 -990.756 83.5639 24.29 -0.891636 -0.452753 1 0.5 0 1
52 1 1.92761 33.5444 0 81.1936 33.5444 0 380.92 572.344 3.19021 40.3696 0.978193 -0.2077 1 0.5 0 1
53 1 14.4043 56.2448 0 14.4043 135.511 0 -598.482 279.178 124.146 120.179 -0.832853 -0.553495 1 0.5 0 1
54 1 52.1518 30.9546 0 52.1518 30.9546 0 -52.479 -197.02 -75.7271 125.323 -0.333476 0.942759 1 0.5 0 1
55 1 15.1096 42.8626 0 94.3756 122.129 0 489.607 389.75 25.7509 -33.6844 0.376739 -0.926319 1 0.5 0 1
56 1 42.0325 39.9555 0 42.0325 39.9555 0 -367.159 307.727 179.722 -161.809 -0.769882 0.638187 1 0.5 0 1
57 1 10.8685 20.5006 0 10.8685 99.7666 0 -743.155 -111.372 -51.3877 22.9767 -0.907881 -0.419229 1 0.5 0 1
58 1 65.8197 28.9077 0 -13.4463 28.9077 0 -433.77 -96.1255 -44.8954 -120.801 -0.871325 0.490706 1 0.5 0 1
59 1 51.5287 35.2652 0 51.5287 35.2652 0 -396.092 -337.083 162.286 335.551 0.511905 -0.859042 1 0.5 0 1
60 1 55.9797 42.1964 0 55.9797 42.1964 0 -370.679 -662.536 98.9124 88.3707 -0.135583 -0.990766 1 0.5 0 1
61 1 58.6664 45.6924 0 58.6664 45.6924 0 381.977 498.643 -282.546 143.784 -0.19207 -0.981381 1 0.5 0 1
62 1 55.3492 19.1954 0 134.615 19.1954 0 15.7858 -480.981 80.32 53.293 0.782006 -0.623271 1 0.5 0 1
63 1 14.8229 62.7311 0 -64.4431 -16.5349 0 153.231 -385.884 -79.3276 -46.4563 -0.350164 0.936688 1 0.5 0 1
64 1 19.2637 34.7132 0 98.5297 113.979 0 27.574 -185.261 20.4301 -78.1907 -0.965433 0.260652 1 0.5 0 1
65 1 42.6601 32.9878 0 201.192 112.254 0 -436.701 98.8073 -64.3796 7.04348 0.739946 0.672667 1 0.5 0 1
66 1 14.0312 45.5586 0 93.2972 124.825 0 -418.282 400.802 -27.9314 -104.432 0.848661 0.528937 1 0.5 0 1
67 1 53.8284 44.3295 0 53.8284 44.3295 0 128.708 642.721 84.8977 -20.9186 -0.384284 -0.923215 1 0.5 0 1
68 1 13.5613 40.6756 0 13.5613 40.6756 0 612.528 -404.211 40.4354 25.244 0.299863 -0.953982 1 0.5 0 1
69 1 52.8459 21.7805 0 52.8459 21.7805 0 853.374 -562.615 16.7485 0.130867 0.881337 0.472488 1 0.5 0 1
70 1 48.104 38.8806 0 48.104 118.147 0 -501.542 -3.92331 -248.076 21.4126 -0.223997 -0.97459 1 0.5 0 1
71 1 56.697 16.8095 0 135.963 16.8095 0 588.648 -126.911 147.442 20.9508 0.244565 0.969633 1 0.5 0 1
72 1 6.86576 59.6501 0 6.86576 59.6501 0 -613.369 -173.044 -11.2904 49.2275 0.459117 -0.888376 1 0.5 0 1
73 1 3.44439 14.5951 0 3.44439 14.5951 0 17.3555 195.748 15.7307 -14.6039 -0.374514 -0.927221 1 0.5 0 1
74 1 56.9218 21.4769 0 56.9218 100.743 0 -252.448 160.705 -107.787 -47.3379 0.625095 -0.780549 1 0.5 0 1
75 1 75.7295 39.1932 0 -3.53649 39.1932 0 276.915 278.385 -228.324 175.613 0.973763 -0.227565 1 0.5 0 1
76 1 18.2658 34.1056 0 -61.0002 34.1056 0 -153.284 -347.781 -69.4573 41.9242 -0.78421 0.620496 1 0.5 0 1
77 1 77.1936 35.1494 0 -2.07238 35.1494 0 235.719 -480.231 98.9499 -70.5368 0.589552 -0.80773 1 0.5 0 1
78 1 59.6904 76.6841 0 59.6904 76.6841 0 -207.955 -377.237 4.01638 -99.9193 0.0401638 -0.999193 1 0.5 0 1
79 1 45.1862 56.5996 0 -34.0798 56.5996 0 243.146 -115.877 55.047 -41.7569 0.952423 0.304779 1 0.5 0 1
80 1 77.7391 27.101 0 -1.52694 -52.165 0 1231.12 968.638 -60.0415 -70.4608 -0.976237 -0.216705 1 0.5 0 1
81 1 47.3248 35.9384 0 126.591 35.9384 0 -14.763 261.06 -166.734 -78.5402 0.590723 0.806874 1 0.5 0 1
82 1 0.950508 39.6541 0 0.950508 39.6541 0 -590.41 615.216 97.9363 106.737 0.436784 0.899566 1 0.5 0 1
83 1 42.5514 41.9431 0 121.817 121.209 0 -270.969 -325.01 217.409 -127.887 -0.988005 0.154422 1 0.5 0 1
84 1 77.1407 45.1272 0 -2.12526 45.1272 0 -41.0089 371.767 269.84 -97.0941 -0.984278 0.176626 1 0.5 0 1
85 1 58.0463 73.6729 0 -21.2197 -5.59313 0 147.61 -668.355 -27.6438 -83.4611 -0.388056 -0.921636 1 0.5 0 1
86 1 10.181 41.7007 0 10.181 41.7007 0 -763.693 -29.6977 172.944 -139.604 -0.614821 -0.788666 1 0.5 0 1
87 1 8.88768 43.1457 0 8.88768 43.1457 0 1392.17 -658.747 -195.298 108.841 -0.168703 -0.985667 1 0.5 0 1
88 1 17.5777 27.8499 0 17.5777 27.8499 0 167.461 374.904 24.5952 65.7668 0.244798 0.969574 1 0.5 0 1
89 1 23.0444 49.918 0 23.0444 -29.348 0 89.8094 192.255 44.1131 -4.78513 -0.7901 -0.612978 1 0.5 0 1
90 1 4.18679 38.9294 0 4.18679 38.9294 0 -68.0559 398.919 82.7807 19.4077 -0.941487 0.337048 1 0.5 0 1
91 1 18.4642 57.2788 0 18.4642 -21.9872 0 182.177 103.307 -2.9414 20.6155 0.792033 -0.610478 1 0.5 0 1
92 1 5.02347 57.2287 0 5.02347 57.2287 0 432.372 -480.205 118.865 2.33786 0.833756 0.552133 1 0.5 0 1
93 1 2.32142 48.4485 0 2.32142 48.4485 0 -111.421 421.754 65.5498 -43.5807 -0.964878 0.262699 1 0.5 0 1
94 1 69.8579 37.4584 0 69.8579 37.4584 0 -43.5055 127.012 -113.434 -39.6898 0.684482 -0.72903 1 0.5 0 1
95 1 66.8942 50.0695 0 66.8942 50.0695 0 659.607 726.53 -124.493 -18.7931 0.742455 0.669896 1 0.5 0 1
96 1 53.6154 43.3583 0 53.6154 43.3583 0 -307.152 -494.606 69.2821 -144.744 -0.666137 -0.74583 1 0.5 0 1
97 1 57.4432 68.1963 0 57.4432 -90.3357 0 -369.201 -105.267 -48.0854 -117.26 -0.28053 -0.959845 1 0.5 0 1
98 1 18.3423 50.19 0 18.3423 50.19 0 365.883 393.614 -68.7687 -144.644 -0.986195 0.165588 1 0.5 0 1
99 1 45.0382 40.8497 0 45.0382 -38.4163 0 198.981 -556.888 -68.5571 -86.9184 0.821856 0.569695 1 0.5 0 1
100 1 72.5455 44.5273 0 72.5455 44.5273 0 231.587 34.6625 159.614 -53.1094 -0.00803424 -0.999968 1 0.5 0 1
101 1 49.7204 49.6001 0 49.7204 -29.6659 0 -72.6452 600.207 -46.7706 -60.5191 0.876515 0.481375 1 0.5 0 1
102 1 78.5617 43.7683 0 -0.704324 43.7683 0 -853.537 403.395 230.596 89.4366 -0.969077 -0.246757 1 0.5 0 1
103 1 25.1398 50.006 0 -133.392 129.272 0 265.793 -137.335 69.988 99.6795 -0.698409 -0.715699 1 0.5 0 1
104 1 53.0947 45.0239 0 53.0947 124.29 0 -163.936 82.4598 88.1006 -72.7714 0.99821 -0.0598033 1 0.5 0 1
105 1 37.6885 38.558 0 37.6885 38.558 0 755.799 -165.093 -21.4679 42.3286 0.920708 -0.390251 1 0.5 0 1
106 1 18.7105 36.1582 0 18.7105 -43.1078 0 432.574 19.0708 -100.515 10.6727 -0.800029 0.599962 1 0.5 0 1
107 1 61.1936 38.2346 0 61.1936 38.2346 0 689.768 908.243 87.0434 -5.4756 0.979094 -0.203406 1 0.5 0 1
108 1 78.7376 37.3439 0 -0.528421 116.61 0 -471.035 113.716 -108.708 46.0033 0.341941 -0.939722 1 0.5 0 1
109 1 39.3447 40.9762 0 -39.9213 120.242 0 209.668 564.603 26.2739 -20.1336 0.968381 -0.249478 1 0.5 0 1
110 1 49.7339 31.9939 0 49.7339 31.9939 0 67.2384 249.143 176.4 75.7527 -0.184297 0.982871 1 0.5 0 1
111 1 73.487 14.6265 0 73.487 93.8925 0 -644.951 819.613 -132.017 -201.603 -0.429404 0.903113 1 0.5 0 1
112 1 12.2114 50.8052 0 12.2114 50.8052 0 -830.303 -406.608 271.326 -99.2893 -0.102835 0.994698 1 0.5 0 1
113 1 14.74 26.5575 0 -64.526 105.824 0 -509.026 -330.058 -10.3759 99.2479 -0.87132 -0.490715 1 0.5 0 1
114 1 54.0272 56.1513 0 54.0272 56.1513 0 297.8 -639.003 -111.472 32.2848 0.73086 -0.682527 1 0.5 0 1
115 1 42.6452 46.7145 0 42.6452 -32.5515 0 -143.033 85.6033 -1.71429 18.0328 0.98779 -0.155791 1 0.5 0 1
116 1 56.5087 70.7439 0 56.5087 -87.7881 0 -399.911 -295.285 -48.8277 64.9523 0.374984 -0.927031 1 0.5 0 1
117 1 64.9145 68.7559 0 64.9145 -10.5101 0 302.319 1028.83 104.59 146.17 0.189949 0.981794 1 0.5 0 1
118 1 54.3437 42.6259 0 54.3437 42.6259 0 689.012 -695.316 -110.309 149.233 0.793019 -0.609196 1 0.5 0 1
119 1 42.1573 59.542 0 200.689 -19.724 0 179.213 -95.7923 78.3787 25.1429 0.999847 -0.0175143 1 0.5 0 1
120 1 45.1407 52.986 0 124.407 -26.28 0 347.834 -190.249 201.602 -72.1817 -0.948758 -0.316004 1 0.5 0 1
121 1 58.7911 70.5016 0 -99.7409 -8.76444 0 -352.747 -410.526 50.1317 6.86544 0.137432 -0.990511 1 0.5 0 1
122 1 38.5889 34.6392 0 38.5889 113.905 0 379.172 268.861 8.31036 38.8718 0.258666 -0.965967 1 0.5 0 1
123 1 72.7862 32.014 0 -6.4798 32.014 0 -49.8625 251.28 82.3145 42.7141 0.549251 0.835658 1 0.5 0 1
124 1 21.9456 40.4043 0 -57.3204 -38.8617 0 -491.033 473.211 -30.0701 8.56169 -0.255236 -0.966879 1 0.5 0 1
125 1 64.1136 29.2934 0 64.1136 29.2934 0 627.093 -573.086 194.872 -78.2346 -0.932353 -0.361548 1 0.5 0 1
126 1 7.93532 36.461 0 87.2013 115.727 0 -295.096 -570.41 97.9225 85.0004 0.948195 0.31769 1 0.5 0 1
127 1 56.7001 31.4507 0 56.7001 110.717 0 154.092 321.392 45.5243 157.06 0.866857 0.498556 1 0.5 0 1
128 1 0.899284 26.096 0 -78.3667 26.096 0 -147.072 -804.13 146.059 126.745 -0.992778 -0.119963 1 0.5 0 1
129 1 68.6204 57.8058 0 68.6204 -21.4602 0 -151.978 -823.938 287.881 134.727 -0.828635 0.559789 1 0.5 0 1
130 1 74.7323 56.9989 0 74.7323 -22.2671 0 354.992 -835.11 -127.116 82.8083 -0.993582 0.113117 1 0.5 0 1
131 1 2.09718 71.8335 0 2.09718 71.8335 0 -67.8325 98.4152 122.826 -34.3086 -0.444302 -0.895877 1 0.5 0 1
132 1 58.8839 33.0582 0 -20.3821 112.324 0 -290.489 206.883 -120.008 130.991 0.905203 0.42498 1 0.5 0 1
133 1 17.0055 51.8022 0 17.0055 131.068 0 -346.512 -155.715 -10.2124 -42.3108 -0.914062 -0.405574 1 0.5 0 1
134 1 11.3209 39.2675 0 11.3209 39.2675 0 463.564 -927.784 -152.376 9.947 0.0347668 -0.999395 1 0.5 0 1
135 1 21.1261 75.5781 0 21.1261 154.844 0 -77.9846 328.813 89.554 32.9754 -0.323622 0.946186 1 0.5 0 1
136 1 29.2427 32.4299 0 108.509 190.962 0 125.16 11.2113 34.7657 83.6173 0.339276 0.940687 1 0.5 0 1
137 1 39.74 45.76 0 119.006 45.76 0 770.934 254.623 -63.7248 18.4832 0.863652 0.504088 1 0.5 0 1
138 1 48.5248 54.9464 0 -30.7412 -24.3196 0 320.115 -406.79 15.1795 143.037 -0.241464 0.97041 1 0.5 0 1
139 1 44.8775 44.5475 0 44.8775 -34.7185 0 -210.999 319.366 241.088 67.6098 -0.333701 -0.942679 1 0.5 0 1
140 1 3.40691 13.5411 0 3.40691 13.5411 0 -537.241 -414.651 134.259 11.8728 -0.849869 0.526993 1 0.5 0 1
141 1 12.4216 58.6234 0 12.4216 58.6234 0 -446.723 182.843 -220.059 90.2211 0.868391 -0.49588 1 0.5 0 1
142 1 20.9772 44.2503 0 -58.2888 123.516 0 325.09 278.006 -45.9453 -113.828 -0.476411 0.879223 1 0.5 0 1
143 1 9.84332 37.0899 0 9.84332 116.356 0 372.618 192.67 43.5606 -154.484 -0.20808 0.978112 1 0.5 0 1
144 1 30.9221 11.5758 0 30.9221 11.5758 0 807.624 -388.569 61.6513 -91.3135 0.519247 -0.854624 1 0.5 0 1
145 1 16.5951 64.8115 0 95.8611 64.8115 0 304.783 610.781 -83.116 53.9227 -0.291795 -0.956481 1 0.5 0 1
146 1 61.1729 63.7584 0 61.1729 -15.5076 0 145.998 -131.063 76.9755 5.43193 0.968759 -0.248003 1 0.5 0 1
147 1 2.62587 68.2231 0 81.8919 -11.0429 0 159.905 -156.946 -65.375 -12.7971 -0.999918 -0.0128122 1 0.5 0 1
148 1 50.4591 64.2286 0 129.725 64.2286 0 693.365 622.285 -145.176 -52.5719 -0.510513 0.85987 1 0.5 0 1
149 1 70.196 32.1537 0 70.196 111.42 0 274.011 72.2279 52.9456 3.32521 -0.368883 0.929476 1 0.5 0 1
150 1 66.229 37.1285 0 -13.037 37.1285 0 601.015 -72.7446 177.351 176.405 0.847833 -0.530263 1 0.5 0 1
151 1 5.60301 58.5672 0 84.869 -20.6988 0 -5.10191 377.505 202.718 -96.0256 -0.342783 -0.939415 1 0.5 0 1
152 1 64.462 66.7397 0 64.462 66.7397 0 -781.53 -255.172 65.7544 92.7799 0.638012 -0.770026 1 0.5 0 1
153 1 77.3598 60.4935 0 77.3598 60.4935 0 621.017 -228.108 -128.739 234.493 0.222116 -0.97502 1 0.5 0 1
154 1 4.22246 51.7632 0 4.22246 51.7632 0 59.7115 -538.712 -354.747 63.043 0.414501 0.910049 1 0.5 0 1
155 1 71.0735 68.7925 0 -87.4585 -10.4735 0 325.699 -319.275 216.29 47.4303 0.330524 0.943797 1 0.5 0 1
156 1 74.6422 48.8227 0 74.6422 48.8227 0 465.066 -391.174 -137.587 103.986 -0.619548 -0.784959 1 0.5 0 1
157 1 3.88646 30.5286 0 3.88646 30.5286 0 388.051 22.8927 -99.0554 169.07 0.986449 -0.164069 1 0.5 0 1
158 1 66.9356 40.1335 0 -12.3304 40.1335 0 9.34915 -454.958 -9.41624 -47.6342 0.886663 -0.462417 1 0.5 0 1
159 1 5.45007 16.5225 0 5.45007 95.7885 0 200.165 385.528 -71.2143 -18.5279 0.229858 0.973224 1 0.5 0 1
160 1 60.236 15.7423 0 60.236 15.7423 0 -106.096 463.942 -91.2322 53.7641 0.941162 -0.337956 1 0.5 0 1
161 1 4.35706 11.9362 0 4.35706 -67.3298 0 189.039 222.045 -115.57 19.3027 -0.514352 0.857579 1 0.5 0 1
162 1 7.8314 54.3797 0 7.8314 54.3797 0 188.03 -88.807 -11.6028 -65.1761 0.250582 -0.968095 1 0.5 0 1
163 1 63.5095 50.829 0 63.5095 50.829 0 505.53 -138.849 -72.2811 -44.2796 0.973416 -0.229043 1 0.5 0 1
164 1 58.7325 64.8078 0 58.7325 -14.4582 0 -160.458 131.832 12.4638 -77.3029 0.932203 0.361937 1 0.5 0 1
165 1 53.3278 17.057 0 53.3278 96.323 0 -1210.43 -238.279 -30.5448 83.6655 0.628427 0.777868 1 0.5 0 1
166 1 10.1 46.231 0 10.1 46.231 0 51.0091 -459.417 -112.364 82.1872 0.721073 0.692859 1 0.5 0 1
167 1 63.4298 30.0063 0 63.4298 30.0063 0 823.853 105.082 10.2378 -42.6926 0.448664 -0.8937 1 0.5 0 1
168 1 14.8433 65.4211 0 -64.4227 65.4211 0 -372.771 145.105 205.855 184.043 0.351041 -0.93636 1 0.5 0 1
169 1 24.8597 53.6232 0 -54.4063 132.889 0 210.422 844.427 5.88791 -95.9438 -0.91953 -0.393019 1 0.5 0 1
170 1 38.3052 67.0077 0 117.571 146.274 0 306.444 204.886 90.6703 1.35697 0.875325 0.483536 1 0.5 0 1
171 1 61.435 69.551 0 140.701 -9.71502 0 128.33 241.434 13.1579 67.786 0.948889 0.31561 1 0.5 0 1
172 1 10.6655 59.3353 0 10.6655 -19.9307 0 -73.9093 678.608 242.684 -271.494 0.732819 -0.680424 1 0.5 0 1
173 1 51.4864 19.1902 0 51.4864 -60.0758 0 -532.912 159.652 68.4478 33.3964 0.871323 0.49071 1 0.5 0 1
174 1 11.2435 53.262 0 11.2435 53.262 0 -328.442 -87.1595 -103.958 9.55545 -0.915305 -0.402761 1 0.5 0 1
175 1 56.3407 68.892 0 -22.9253 -10.374 0 -156.349 403.54 117.494 -25.4534 0.662201 0.749326 1 0.5 0 1
176 1 12.5751 51.7711 0 12.5751 51.7711 0 196.388 62.5865 40.6378 -225.126 0.386419 0.922323 1 0.5 0 1
177 1 4.78358 69.624 0 4.78358 69.624 0 -442.227 -140.109 -21.797 50.1858 -0.171484 -0.985187 1 0.5 0 1
178 1 56.2293 29.4694 0 -23.0367 108.735 0 459.174 -191.401 -100.56 84.7484 -0.945676 0.32511 1 0.5 0 1
179 1 6.15847 57.705 0 6.15847 -21.561 0 187.275 281.26 -6.4808 22.0504 0.964548 0.263908 1 0.5 0 1
180 1 73.7613 42.2018 0 73.7613 42.2018 0 -149.469 -221.915 15.6844 -33.3197 0.180341 -0.983604 1 0.5 0 1
181 1 78.8388 10.9288 0 78.8388 10.9288 0 221.857 -579.871 47.3183 38.7995 0.902246 0.431222 1 0.5 0 1
182 1 5.47759 72.5684 0 -73.7884 72.5684 0 -294.099 322.141 153.39 -178.253 -0.456151 -0.889902 1 0.5 0 1
183 1 58.9726 58.5696 0 58.9726 -20.6964 0 -482.621 -239.27 -60.8171 -179.313 -0.758893 -0.651215 1 0.5 0 1
184 1 63.3756 43.5078 0 63.3756 43.5078 0 -713.821 -508.009 -48.193 93.7174 -0.198301 -0.980141 1 0.5 0 1
185 1 56.9712 17.8663 0 -22.2948 17.8663 0 453.932 334.896 -81.5999 -118.179 0.769752 0.638343 1 0.5 0 1
186 1 19.9768 44.0259 0 -59.2892 123.292 0 540.186 805.897 -26.0877 -38.1113 -0.179328 0.983789 1 0.5 0 1
187 1 55.0806 35.5773 0 -24.1854 114.843 0 77.0044 301.234 -302.725 -57.3183 -0.150691 0.988581 1 0.5 0 1
188 1 64.6315 15.3831 0 143.898 94.6491 0 -57.8639 147.493 130.574 193.998 0.305831 0.952086 1 0.5 0 1
189 1 8.68839 13.2737 0 8.68839 92.5397 0 147.598 -153.999 44.5512 89.5276 0.445512 0.895276 1 0.5 0 1
190 1 22.8658 51.6327 0 -56.4002 51.6327 0 104.133 -778.212 -29.4807 22.905 0.727651 -0.685947 1 0.5 0 1
191 1 75.7829 76.3024 0 155.049 -2.96363 0 -739.734 -66.1362 34.0934 70.6861 0.988945 -0.148282 1 0.5 0 1
192 1 58.5273 38.3121 0 58.5273 38.3121 0 -169.458 -269.676 76.4946 195.558 -0.426562 -0.904458 1 0.5 0 1
193 1 76.2854 13.6404 0 -2.98055 92.9064 0 -244.242 556.893 -26.4688 83.4668 0.234085 0.972216 1 0.5 0 1
194 1 11.3119 25.0471 0 11.3119 -54.2189 0 694.439 -449.974 3.20626 -93.5799 -0.564265 -0.825594 1 0.5 0 1
195 1 53.1004 31.2976 0 53.1004 31.2976 0 -71.68 -386.763 69.2734 -79.8374 0.326948 0.945042 1 0.5 0 1
196 1 58.614 42.0364 0 58.614 42.0364 0 -199.816 -799.88 -0.718907 81.317 0.998444 -0.0557588 1 0.5 0 1
197 1 72.208 61.7094 0 -7.05797 61.7094 0 -493.238 79.9785 -1.01249 -0.87166 0.905091 -0.425217 1 0.5 0 1
198 1 73.8117 45.8323 0 73.8117 45.8323 0 -889.363 273.965 -32.1512 -3.87828 -0.885017 0.465559 1 0.5 0 1
199 1 68.5515 69.7926 0 -10.7145 -9.47338 0 695.88 1296.82 -56.2943 270.731 0.457443 -0.889239 1 0.5 0 1
200 1 1.12233 17.9322 0 80.3883 97.1982 0 191.069 826.993 89.6233 65.7593 0.622243 0.782825 1 0.5 0 1
201 1 64.0462 12.3407 0 -15.2198 91.6067 0 895.067 38.2878 39.9487 -32.9816 0.594063 0.804418 1 0.5 0 1
202 1 56.7243 60.6772 0 -22.5417 -18.5888 0 -509.497 -104.117 -101.006 -146.087 0.789758 0.613418 1 0.5 0 1
203 1 16.7579 42.3568 0 -62.5081 121.623 0 202.972 153.907 -11.1636 -107.594 -0.983066 -0.183253 1 0.5 0 1
204 1 65.7115 64.3389 0 65.7115 -14.9271 0 -332.988 1119.04 -97.2601 -291.857 -0.298514 -0.954405 1 0.5 0 1
205 1 48.2072 22.2556 0 48.2072 101.522 0 -1102.2 -12.8108 -42.4584 72.6942 -0.0679336 0.99769 1 0.5 0 1
206 1 4.7322 61.2386 0 4.7322 -18.0274 0 -1029.03 126.571 179.891 -40.6695 -0.999589 0.0286788 1 0.5 0 1
207 1 60.4655 64.4327 0 60.4655 64.4327 0 71.4873 -9.33348 -70.1404 57.077 0.951157 0.308707 1 0.5 0 1
208 1 8.26244 33.8297 0 8.26244 33.8297 0 -291.178 -62.9428 -265.798 18.3686 0.970904 0.239467 1 0.5 0 1
209 1 52.3241 28.2591 0 52.3241 107.525 0 -190.477 453.148 190.984 -61.2942 0.809645 -0.586919 1 0.5 0 1
210 1 67.135 62.9363 0 -12.131 62.9363 0 -254.538 643.651 40.7345 -70.73 -0.708024 0.706189 1 0.5 0 1
211 1 60.7691 43.5665 0 60.7691 43.5665 0 -394.147 103.947 6.60954 112.027 0.333899 -0.942609 1 0.5 0 1
212 1 21.8417 47.1964 0 180.374 47.1964 0 334.455 334.198 -44.1967 2.3141 0.247034 0.969007 1 0.5 0 1
213 1 70.4471 65.7354 0 70.4471 65.7354 0 367.452 765.19 -163.138 -122.166 -0.328039 -0.944664 1 0.5 0 1
214 1 38.8639 27.6437 0 38.8639 27.6437 0 218.622 -60.4645 57.0162 -66.8113 0.8497 -0.527266 1 0.5 0 1
215 1 55.2003 62.145 0 55.2003 -17.121 0 204.895 -211.455 -93.481 -122.497 0.462225 0.886763 1 0.5 0 1
216 1 15.7375 47.7456 0 15.7375 127.012 0 -185.932 110.174 -163.681 -6.90697 0.166377 0.986062 1 0.5 0 1
217 1 26.0855 71.515 0 184.617 71.515 0 -61.0095 415.334 99.7822 -6.59705 0.997822 -0.0659705 1 0.5 0 1
218 1 46.6096 51.5634 0 46.6096 51.5634 0 160.407 -314.395 -65.7435 117.509 -0.991901 -0.127017 1 0.5 0 1
219 1 53.303 45.9867 0 53.303 45.9867 0 -171.956 -600.05 129.16 99.3159 -0.278907 -0.960318 1 0.5 0 1
220 1 63.9508 68.5253 0 63.9508 -90.0067 0 903.35 731.913 -156.186 -145.401 0.850262 0.526359 1 0.5 0 1
221 1 45.8868 63.5068 0 -33.3792 142.773 0 -80.2581 -333.16 -28.2317 -96.4379 -0.283146 -0.959077 1 0.5 0 1
222 1 41.3758 31.7206 0 41.3758 31.7206 0 -233.962 261.316 -36.0103 -30.4811 0.79452 -0.607238 1 0.5 0 1
223 1 71.7673 38.0469 0 -7.49873 38.0469 0 563.754 296.112 128.865 6.92126 0.995199 -0.0978702 1 0.5 0 1
224 1 76.8205 62.1352 0 -2.44551 62.1352 0 -771.383 -282.73 1.11664 -223.447 0.490072 -0.871682 1 0.5 0 1
225 1 15.1755 23.812 0 94.4415 -55.454 0 -183.893 566.813 23.8739 -41.2134 -0.988972 0.148105 1 0.5 0 1
226 1 26.485 47.7671 0 -52.781 -31.4989 0 405.408 -449.973 -2.39869 -62.3302 -0.257923 -0.966166 1 0.5 0 1
227 1 1.39813 37.9262 0 80.6641 37.9262 0 -254.677 -460.613 -149.908 -7.19777 0.540644 -0.841252 1 0.5 0 1
228 1 17.5536 62.1886 0 -61.7124 -17.0774 0 1.30589 -112.567 -22.2229 12.9003 -0.571532 -0.82058 1 0.5 0 1
229 1 51.467 41.765 0 51.467 41.765 0 -452.379 201.373 180.147 97.9983 -0.432331 -0.901715 1 0.5 0 1
230 1 51.8829 40.0815 0 51.8829 119.348 0 -383.204 454.695 -93.1672 165.745 -0.994084 -0.108617 1 0.5 0 1
231 1 3.34714 25.1265 0 3.34714 104.393 0 -29.272 493.488 219.107 -168.261 -0.491526 0.870863 1 0.5 0 1
232 1 44.9062 28.0999 0 44.9062 -51.1661 0 272.364 739.945 2.26447 -189.156 0.477574 0.878592 1 0.5 0 1
233 1 8.38973 47.4682 0 8.38973 47.4682 0 1099.84 618.838 -142.698 -172.422 0.729267 0.684229 1 0.5 0 1
234 1 66.4977 11.1905 0 66.4977 11.1905 0 -419.825 846.183 -49.3875 -3.5563 -0.774279 0.632845 1 0.5 0 1
235 1 24.721 49.1318 0 24.721 128.398 0 429.563 -185.758 3.36578 -55.0111 -0.31073 0.950498 1 0.5 0 1
236 1 56.8905 69.8046 0 136.157 -9.4614 0 -709.247 441.456 -5.85898 -36.425 0.683464 0.729984 1 0.5 0 1
237 1 70.9552 72.3556 0 70.9552 -6.91037 0 -579.144 -204.643 12.8138 9.89758 -0.116968 -0.993136 1 0.5 0 1
238 1 67.7864 22.0937 0 67.7864 101.36 0 -436.99 37.6177 22.7199 19.8093 0.666806 0.745232 1 0.5 0 1
239 1 2.85557 44.0112 0 82.1216 44.0112 0 -306.703 41.3711 -67.9025 134.875 0.0825567 -0.996586 1 0.5 0 1
240 1 71.3594 17.6498 0 71.3594 17.6498 0 -46.809 -1029.09 -88.2548 -20.9471 0.241529 -0.970394 1 0.5 0 1
241 1 47.8348 37.8749 0 47.8348 37.8749 0 307.478 454.434 44.0981 -4.36521 0.804319 -0.594198 1 0.5 0 1
242 1 8.71282 64.3527 0 87.9788 -14.9133 0 -9.01447 625.374 99.0325 6.04151 0.989598 0.143863 1 0.5 0 1
243 1 54.6005 71.596 0 -103.932 71.596 0 -170.383 203.471 56.051 1.58002 -0.993942 -0.109907 1 0.5 0 1
244 1 59.6267 25.0696 0 59.6267 104.336 0 -138.758 598.289 -127.867 12.5939 -0.00429849 -0.999991 1 0.5 0 1
245 1 56.8167 52.4035 0 56.8167 52.4035 0 206.157 -328.649 -170.213 -32.3199 -0.0571271 -0.998367 1 0.5 0 1
246 1 49.093 42.9619 0 49.093 42.9619 0 -499.726 -560.925 79.502 14.6234 0.986127 -0.165993 1 0.5 0 1
247 1 68.0467 54.8713 0 68.0467 -24.3947 0 -309.983 -554.367 146.864 131.527 0.217983 -0.975953 1 0.5 0 1
248 1 70.3201 5.61464 0 -8.94586 5.61464 0 545.104 962.497 68.591 -72.7687 0.68591 -0.727687 1 0.5 0 1
249 1 41.4721 45.3695 0 120.738 -33.8965 0 49.5117 688.273 -11.8874 60.8359 0.691886 0.722007 1 0.5 0 1
250 1 56.4824 67.8301 0 215.014 67.8301 0 -451.487 221.106 139.737 -52.587 -0.0109506 -0.99994 1 0.5 0 1
251 1 62.8955 15.8029 0 62.8955 174.335 0 417.12 537.141 -82.3681 70.868 0.859936 0.510402 1 0.5 0 1
252 1 58.838 22.1019 0 58.838 101.368 0 33.0097 648.099 11.6097 185.925 -0.8297 -0.558209 1 0.5 0 1
253 1 17.3723 49.9137 0 17.3723 49.9137 0 261.154 -471.088 65.1144 69.9561 -0.179166 -0.983819 1 0.5 0 1
254 1 47.0272 34.9511 0 47.0272 114.217 0 -166.423 -192.695 150.218 49.1688 0.846364 -0.532605 1 0.5 0 1
255 1 0.528693 34.975 0 79.7947 114.241 0 -393.727 378.732 43.8071 59.8951 0.0692946 0.997596 1 0.5 0 1
256 1 68.5977 43.4674 0 -10.6683 43.4674 0 -744.478 230.214 40.2307 -73.5757 -0.7639 0.645334 1 0.5 0 1
257 1 7.02409 39.9037 0 7.02409 119.17 0 193.685 -926.057 -62.6791 -199.488 -0.989178 0.146722 1 0.5 0 1
258 1 6.12996 28.5401 0 6.12996 -50.7259 0 -112.126 -70.7787 -30.0097 -70.0163 -0.822799 0.568332 1 0.5 0 1
259 1 22.3683 9.39136 0 22.3683 9.39136 0 47.2241 -249.667 -68.3961 -72.9518 -0.683961 -0.729518 1 0.5 0 1
260 1 71.548 70.778 0 150.814 -8.48797 0 435.754 -57.882 19.2615 -1.13733 0.971105 -0.238654 1 0.5 0 1
261 1 10.2074 24.1689 0 10.2074 24.1689 0 13.9732 405.772 -137.164 47.9 -0.789377 0.613909 1 0.5 0 1
262 1 56.9121 61.6285 0 136.178 -17.6375 0 612.982 794.34 -7.7938 76.3014 -0.627337 -0.778748 1 0.5 0 1
263 1 1.49537 72.6694 0 -77.7706 -85.8626 0 343.134 219.483 13.7635 28.7615 0.335986 -0.941867 1 0.5 0 1
264 1 16.8203 36.5625 0 175.352 -42.7035 0 -255.289 -29.3292 -31.1376 -96.756 -0.868502 -0.495685 1 0.5 0 1
265 1 51.9012 29.9672 0 51.9012 109.233 0 -513.122 -199.503 246.681 -96.7241 0.818446 -0.574584 1 0.5 0 1
266 1 56.304 54.0991 0 56.304 54.0991 0 244.935 -284.353 -42.7391 27.7838 0.434737 0.900558 1 0.5 0 1
267 1 73.551 63.9599 0 -5.71498 -15.3061 0 -1096.8 -296.164 -8.53256 -64.1031 -0.663124 -0.74851 1 0.5 0 1
268 1 67.6583 61.1978 0 67.6583 61.1978 0 537.591 -124.752 -62.689 135.659 0.551036 -0.834481 1 0.5 0 1
269 1 43.8252 65.1173 0 123.091 65.1173 0 -232.211 -21.1503 28.5594 -7.87818 0.997904 0.0647055 1 0.5 0 1
270 1 10.4942 69.1354 0 10.4942 -10.1306 0 -5.43211 220.959 -38.7476 -47.8995 -0.711694 -0.70249 1 0.5 0 1
271 1 34.3995 11.3941 0 113.666 11.3941 0 378.245 788.339 90.8442 41.801 0.908442 0.41801 1 0.5 0 1
272 1 50.9048 39.8214 0 50.9048 39.8214 0 571.542 676.885 113.157 -59.5989 0.135394 0.990792 1 0.5 0 1
273 1 60.1725 51.6196 0 60.1725 51.6196 0 -784.371 206.14 -33.4587 82.6135 -0.483443 0.875376 1 0.5 0 1
274 1 22.9717 40.9386 0 102.238 40.9386 0 330.216 360.842 -44.0861 89.7575 -0.440861 0.897575 1 0.5 0 1
275 1 10.9375 64.5558 0 90.2035 -14.7102 0 -979.418 -162.862 -37.0846 -40.6433 0.978466 0.206408 1 0.5 0 1
276 1 57.9329 46.4506 0 57.9329 46.4506 0 -411.645 3.60882 250.077 12.8612 0.863422 0.504482 1 0.5 0 1
277 1 53.4836 67.9279 0 53.4836 -11.3381 0 657.644 -399.651 -6.21798 -0.611601 0.943033 0.332699 1 0.5 0 1
278 1 9.19086 34.1196 0 -70.0751 113.386 0 -203.342 -565.486 127.64 60.7602 0.0705213 -0.99751 1 0.5 0 1
279 1 17.0461 43.3646 0 96.3121 -115.167 0 -230.792 30.9782 -190.445 36.2825 -0.522812 0.852448 1 0.5 0 1
280 1 1.86518 73.6196 0 -77.4008 -84.9124 0 -554.122 -348.536 -25.6202 16.9127 -0.256575 -0.966524 1 0.5 0 1
281 1 69.4023 57.127 0 69.4023 57.127 0 97.0618 290.633 -94.6048 -68.074 -0.992264 -0.124146 1 0.5 0 1
282 1 48.0311 50.1092 0 48.0311 -29.1568 0 -140.699 -149.247 -23.2556 31.3129 0.967411 -0.253212 1 0.5 0 1
283 1 68.5646 32.4745 0 -10.7014 111.741 0 -28.523 329.501 -37.7159 128.25 -0.0243614 -0.999703 1 0.5 0 1
284 1 4.87913 30.8481 0 4.87913 110.114 0 -376.29 -662.183 -21.2714 -24.0224 0.786654 -0.617394 1 0.5 0 1
285 1 65.0218 35.87 0 65.0218 35.87 0 332.741 64.9404 -87.8742 -176.059 -0.238948 -0.971032 1 0.5 0 1