ITEM: TIMESTEP
430000
ITEM: NUMBER OF ATOMS
4000
ITEM: BOX BOUNDS pp pp pp
0.0000000000000000e+00 7.9266000000000005e+01
0.0000000000000000e+00 7.9266000000000005e+01
-5.0000000000000000e-01 5.0000000000000000e-01
ITEM: ATOMS id type x y z xu yu zu vx vy fx fy mux muy mu radius omegaz mass
1 1 6.0739 65.3247 0 85.3399 65.3247 0 -524.922 -1053.13 127.098 -45.6735 0.618181 -0.786035 1 0.5 0 1
2 1 61.2675 18.837 0 61.2675 18.837 0 19.1158 28.3225 -33.5996 -87.8099 0.498089 -0.867126 1 0.5 0 1
3 1 20.7274 33.3878 0 20.7274 -45.8782 0 139.204 707.016 94.9142 -31.4849 0.949142 -0.314849 1 0.5 0 1
4 1 2.16792 16.4405 0 2.16792 16.4405 0 -236.956 162.594 2.60208 -32.3938 -0.602723 0.79795 1 0.5 0 1
5 1 1.03214 32.2028 0 1.03214 32.2028 0 -914.132 720.948 -83.8796 89.6654 -0.614756 0.788718 1 0.5 0 1
6 1 68.3584 30.2586 0 -10.9076 30.2586 0 331.241 211.004 -254.994 98.5398 0.231732 0.97278 1 0.5 0 1
7 1 67.0301 50.6127 0 67.0301 50.6127 0 570.268 766.283 -67.169 -36.4458 -0.352045 0.935983 1 0.5 0 1
8 1 16.007 32.8597 0 16.007 -46.4063 0 -33.7307 799.179 -40.7743 9.77583 -0.887462 -0.46088 1 0.5 0 1
9 1 66.8857 27.9719 0 66.8857 27.9719 0 -64.6365 642.526 41.6137 -17.8651 -0.990248 0.139313 1 0.5 0 1
10 1 20.6723 53.9484 0 20.6723 53.9484 0 418.803 187.327 48.0278 -107.341 -0.881706 -0.471799 1 0.5 0 1
11 1 66.4057 12.8467 0 -92.1263 12.8467 0 -44.6999 -75.4247 37.5122 17.0745 -0.55414 0.832424 1 0.5 0 1
12 1 78.1841 23.489 0 78.1841 102.755 0 -1090.9 231.24 45.2838 -110.879 -0.941181 0.337903 1 0.5 0 1
13 1 78.2615 67.5748 0 78.2615 -11.6912 0 647.193 596.37 -17.2365 -134.967 -0.900585 -0.434681 1 0.5 0 1
14 1 15.0998 41.5929 0 -143.432 41.5929 0 -322.716 -673.815 76.4872 18.1516 -0.9084 0.418103 1 0.5 0 1
15 1 9.97116 35.8951 0 9.97116 35.8951 0 622.377 515.452 -46.0018 -97.2454 -0.290728 0.956806 1 0.5 0 1
16 1 15.5985 51.5382 0 -63.6675 -27.7278 0 -64.7524 -175.716 -57.6258 7.76352 -0.949115 -0.314929 1 0.5 0 1
17 1 40.7702 40.8491 0 120.036 120.115 0 63.7462 -843.961 30.8696 146.29 0.533209 -0.845984 1 0.5 0 1
18 1 72.4997 74.1154 0 -6.76629 -5.15065 0 139.47 -275.267 80.0456 -68.1501 0.275918 -0.961181 1 0.5 0 1
19 1 3.68453 43.1107 0 3.68453 43.1107 0 -112.878 -472.426 34.7068 -35.1826 0.761152 0.648573 1 0.5 0 1
20 1 16.5363 59.1988 0 16.5363 59.1988 0 -342.603 -235.516 101.333 111.765 0.34997 -0.936761 1 0.5 0 1
21 1 2.01106 28.9148 0 2.01106 28.9148 0 201.51 138.132 -110.589 75.8798 -0.131156 0.991362 1 0.5 0 1
22 1 0.417298 22.1786 0 79.6833 22.1786 0 494.36 -384.108 -84.1878 81.9109 -0.795878 -0.605458 1 0.5 0 1
23 1 39.7674 45.3486 0 119.033 45.3486 0 -687.262 120.227 59.9714 103.332 0.767266 -0.641329 1 0.5 0 1
24 1 66.9062 57.7106 0 66.9062 -21.5554 0 828.082 675.24 5.74563 -67.1123 0.776013 -0.630717 1 0.5 0 1
25 1 46.9243 29.725 0 -32.3417 -49.541 0 -156.711 -171.265 -46.2594 -55.2567 0.11532 -0.993328 1 0.5 0 1
26 1 51.9075 59.1496 0 51.9075 -99.3824 0 -1063.87 -92.2927 -37.8229 -23.2949 0.734994 0.678074 1 0.5 0 1
27 1 73.1266 19.8512 0 -6.13941 99.1172 0 254.784 1171.48 -95.6872 88.9906 -0.863744 -0.503931 1 0.5 0 1
28 1 11.3778 68.9498 0 11.3778 68.9498 0 451.128 72.5894 31.3939 74.8252 -0.956567 -0.291513 1 0.5 0 1
29 1 74.1725 39.4102 0 -5.09353 39.4102 0 199.755 560.661 -55.8337 -200.803 -0.867759 -0.496985 1 0.5 0 1
30 1 1.21361 10.2741 0 80.4796 89.5401 0 -952.008 374.185 -18.1913 -26.514 0.838322 0.545176 1 0.5 0 1
31 1 72.8189 27.1175 0 -6.44713 27.1175 0 -471.678 -171.527 41.795 346.664 -0.590232 0.807234 1 0.5 0 1
32 1 2.36468 17.4377 0 2.36468 17.4377 0 252.548 230.154 117.768 -27.1869 0.894775 0.446518 1 0.5 0 1
33 1 65.4794 59.1001 0 65.4794 -20.1659 0 571.703 861.346 -18.3964 -237.819 -0.322425 -0.946595 1 0.5 0 1
34 1 6.62326 47.6427 0 85.8893 47.6427 0 259.676 -682.559 -200.449 25.7588 -0.364875 0.931056 1 0.5 0 1
35 1 43.6596 37.2099 0 -35.6064 37.2099 0 76.6035 -857.223 72.3949 78.6176 0.749666 0.661816 1 0.5 0 1
36 1 60.059 59.4425 0 60.059 -19.8235 0 -1223.38 -659.071 152.43 89.2 -0.149403 0.988776 1 0.5 0 1
37 1 69.7444 43.4358 0 69.7444 43.4358 0 457.467 39.788 -279.683 191.868 -0.205183 0.978724 1 0.5 0 1
38 1 0.877127 14.0854 0 159.409 93.3514 0 -856.441 -382.533 30.9403 -8.84565 0.869152 0.494544 1 0.5 0 1
39 1 7.73369 24.6042 0 86.9997 -54.6618 0 -374.157 -479.654 110.347 -45.46 0.427349 -0.904087 1 0.5 0 1
40 1 55.7773 18.6458 0 -23.4887 97.9118 0 -362.736 -188.052 91.1613 11.2333 0.833728 0.552175 1 0.5 0 1
41 1 69.4203 53.1037 0 69.4203 53.1037 0 1074.04 -590.148 -8.17511 119.185 0.0393392 -0.999226 1 0.5 0 1
42 1 75.6452 60.4419 0 -3.62083 60.4419 0 -185.617 104.007 99.2839 141.664 0.536471 -0.843919 1 0.5 0 1
43 1 78.6392 16.2963 0 -79.8928 95.5623 0 381.529 -630.441 69.5999 -56.5779 -0.184251 -0.982879 1 0.5 0 1
44 1 64.4052 20.7363 0 64.4052 100.002 0 285.321 -416.905 -57.738 2.15717 0.655323 0.755349 1 0.5 0 1
45 1 17.2283 64.7318 0 17.2283 -93.8002 0 -493.724 -366.159 39.8814 12.4205 0.144824 -0.989457 1 0.5 0 1
46 1 4.88961 44.4224 0 4.88961 44.4224 0 169.691 -144.005 -34.3362 -179.928 -0.733124 -0.680095 1 0.5 0 1
47 1 58.9 61.81 0 58.9 -17.456 0 595.392 656.616 42.5155 -68.8738 -0.809973 -0.586467 1 0.5 0 1
48 1 12.559 47.1697 0 12.559 47.1697 0 -319.469 289.233 129.932 -102.859 0.98246 -0.186476 1 0.5 0 1
49 1 39.9522 55.1696 0 39.9522 55.1696 0 -365.107 -183.574 -21.9731 35.6437 0.73661 -0.676318 1 0.5 0 1
50 1 54.7998 18.3806 0 -24.4662 18.3806 0 364.18 670.454 -39.6911 -189.076 0.556801 0.830646 1 0.5 0 1
51 1 62.2095 72.959 0 -96.3225 -6.307 0 -82.4908 -199.625 -29.0744 133.324 -0.644939 -0.764234 1 0.5 0 1
52 1 2.27812 33.4335 0 81.5441 33.4335 0 832.718 -142.488 -267.067 28.7811 0.998675 0.0514598 1 0.5 0 1
53 1 13.9511 56.5481 0 13.9511 135.814 0 106.467 -231.752 23.7134 -1.56403 -0.964132 -0.265422 1 0.5 0 1
54 1 52.6282 30.6451 0 52.6282 30.6451 0 157.357 -48.1634 -156.578 -17.0316 -0.461672 0.887051 1 0.5 0 1
55 1 14.7509 43.2513 0 94.0169 122.517 0 452.919 -488.23 -80.3414 -112.155 -0.638373 -0.769727 1 0.5 0 1
56 1 42.34 39.5766 0 42.34 39.5766 0 721.452 414.619 56.3746 47.5436 0.592337 0.80569 1 0.5 0 1
57 1 11.1041 23.2269 0 11.1041 102.493 0 455.904 123.666 93.0049 -14.9712 -0.984553 -0.175084 1 0.5 0 1
58 1 66.1933 28.685 0 -13.0727 28.685 0 297.31 -411.584 56.5056 77.7935 -0.957508 0.288408 1 0.5 0 1
59 1 51.9002 34.9974 0 51.9002 34.9974 0 185.679 -262.564 8.84788 115.014 -0.600088 -0.799934 1 0.5 0 1
60 1 56.1038 41.8979 0 56.1038 41.8979 0 151.113 274.885 55.4388 56.5734 0.364946 -0.931029 1 0.5 0 1
61 1 58.6328 45.3598 0 58.6328 45.3598 0 -378.483 -595.033 -122.318 55.3154 0.6886 -0.725141 1 0.5 0 1
62 1 56.8943 20.0154 0 136.16 20.0154 0 498.956 104.33 -52.9206 -103.913 0.952842 -0.303467 1 0.5 0 1
63 1 13.7231 62.9946 0 -65.5429 -16.2714 0 -417.819 -140.973 105.004 -27.9206 0.532193 0.846623 1 0.5 0 1
64 1 29.8442 33.5725 0 109.11 112.839 0 -267.86 -507.417 -99.2706 12.0564 -0.992706 0.120564 1 0.5 0 1
65 1 43.2469 32.5165 0 201.779 111.783 0 -333.833 47.9647 -95.685 11.1101 0.963052 0.269317 1 0.5 0 1
66 1 13.7955 45.6495 0 93.0615 124.915 0 131.699 -147.463 140.29 58.7455 -0.208543 0.978013 1 0.5 0 1
67 1 53.9002 43.9946 0 53.9002 43.9946 0 581.285 397.792 -105.208 79.4127 -0.491123 -0.87109 1 0.5 0 1
68 1 13.856 40.4394 0 13.856 40.4394 0 -591.48 377.942 18.8938 -12.5425 -0.148536 -0.988907 1 0.5 0 1
69 1 53.4675 21.67 0 53.4675 21.67 0 509.252 -484.058 -1.5599 65.6343 0.99981 0.0195005 1 0.5 0 1
70 1 48.3673 38.4863 0 48.3673 117.752 0 -464.432 112.762 -74.774 -24.4637 -0.235375 -0.971905 1 0.5 0 1
71 1 56.4597 16.8722 0 135.726 16.8722 0 -147.829 622.975 -28.0948 24.8962 0.0641068 0.997943 1 0.5 0 1
72 1 6.29564 59.0081 0 6.29564 59.0081 0 -339.683 120.552 -35.2574 9.04833 0.231291 -0.972885 1 0.5 0 1
73 1 3.53737 14.0775 0 3.53737 14.0775 0 330.239 428.738 -21.3081 -38.5133 -0.318826 -0.947813 1 0.5 0 1
74 1 57.1168 22.0152 0 57.1168 101.281 0 185.539 383.587 -155.325 -96.5592 0.641406 -0.767202 1 0.5 0 1
75 1 75.8823 39.0005 0 -3.3837 39.0005 0 133.807 -388.665 14.1086 101.198 0.994891 0.100959 1 0.5 0 1
76 1 26.8386 29.1169 0 -52.4274 29.1169 0 687.093 153.111 -99.9827 1.85946 -0.999827 0.0185946 1 0.5 0 1
77 1 77.464 34.9773 0 -1.80196 34.9773 0 374.527 217.78 126.462 -60.3724 0.986616 0.163061 1 0.5 0 1
78 1 59.4672 14.6907 0 59.4672 93.9567 0 262.742 -786 -75.5181 5.97021 0.696945 -0.717125 1 0.5 0 1
79 1 44.6659 55.151 0 -34.6001 55.151 0 -254.987 746.612 149.729 257.789 0.811022 0.585016 1 0.5 0 1
80 1 78.0948 27.064 0 -1.17123 -52.202 0 -137.576 480.751 239.713 108.399 -0.708828 -0.705382 1 0.5 0 1
81 1 47.7073 35.4575 0 126.973 35.4575 0 -827.164 234.772 -75.8184 -136.439 0.996242 -0.0866154 1 0.5 0 1
82 1 1.13074 39.4573 0 1.13074 39.4573 0 -97.1077 -811.35 -34.2467 112.985 0.911465 0.411378 1 0.5 0 1
83 1 41.724 41.2236 0 120.99 120.49 0 100.668 -739.341 -52.2859 92.6181 -0.728138 0.68543 1 0.5 0 1
84 1 77.1344 44.8147 0 -2.13161 44.8147 0 -650.437 -434.896 9.60384 -8.01593 -0.711666 -0.702518 1 0.5 0 1
85 1 73.7732 2.86731 0 -5.49283 2.86731 0 233.645 -96.6683 -99.7414 -7.18641 -0.997414 -0.0718641 1 0.5 0 1
86 1 10.3705 41.49 0 10.3705 41.49 0 242.063 212.365 -148.959 64.2193 -0.961453 -0.274968 1 0.5 0 1
87 1 9.01772 42.9384 0 9.01772 42.9384 0 -451.201 178.271 -4.57093 -60.5418 0.0426654 -0.999089 1 0.5 0 1
88 1 19.0767 10.8692 0 19.0767 10.8692 0 80.5539 475.851 -68.2958 71.2037 -0.460803 0.887502 1 0.5 0 1
89 1 22.5737 50.7462 0 22.5737 -28.5198 0 169.814 467.985 -107.367 -213.413 -0.867831 -0.496859 1 0.5 0 1
90 1 4.42801 38.7041 0 4.42801 38.7041 0 -237.745 -27.6732 -327.438 109.168 -0.9313 0.364253 1 0.5 0 1
91 1 18.0672 57.8051 0 18.0672 -21.4609 0 -289.152 -290.834 91.7303 46.7951 0.796086 -0.605183 1 0.5 0 1
92 1 4.68568 56.8178 0 4.68568 56.8178 0 718.929 122.987 276.06 17.3539 0.809481 0.587146 1 0.5 0 1
93 1 2.21732 48.0919 0 2.21732 48.0919 0 -258.853 272.523 113.355 -99.0985 -0.549205 0.835688 1 0.5 0 1
94 1 70.1107 37.2012 0 70.1107 37.2012 0 -219.742 405.738 -39.9245 42.523 0.225434 -0.974258 1 0.5 0 1
95 1 66.7726 49.6535 0 66.7726 49.6535 0 131.311 -110.612 -72.6731 -14.1277 -0.858031 0.513598 1 0.5 0 1
96 1 53.6953 43.0191 0 53.6953 43.0191 0 439.973 134.282 -422.41 -185.629 -0.957418 -0.288707 1 0.5 0 1
97 1 55.9953 70.5479 0 55.9953 -87.9841 0 -435.352 -67.3276 17.5234 132.303 0.820523 -0.571613 1 0.5 0 1
98 1 17.9574 50.3976 0 17.9574 50.3976 0 -1055.87 79.0501 144.698 32.4227 -0.767005 0.641642 1 0.5 0 1
99 1 45.1888 40.4967 0 45.1888 -38.7693 0 587.288 1054.95 207.725 10.4978 0.626762 0.779211 1 0.5 0 1
100 1 72.6201 44.2917 0 72.6201 44.2917 0 384.784 -451.991 -93.22 68.5916 0.142609 -0.989779 1 0.5 0 1
101 1 49.4791 48.2658 0 49.4791 -31.0002 0 -550.206 -946.918 131.576 -26.7286 0.881447 0.472283 1 0.5 0 1
102 1 78.6156 43.496 0 -0.650393 43.496 0 -69.292 400.775 140.447 27.1384 -0.598702 -0.800972 1 0.5 0 1
103 1 24.7921 52.1109 0 -133.74 131.377 0 163.115 17.0549 -50.8381 -83.1345 -0.785879 -0.618381 1 0.5 0 1
104 1 53.1306 44.7033 0 53.1306 123.969 0 -1012.46 1106.98 296.809 -133.18 0.995495 0.0948176 1 0.5 0 1
105 1 21.6584 34.8943 0 21.6584 34.8943 0 -73.0287 480.872 61.1903 79.0933 0.611903 0.790933 1 0.5 0 1
106 1 18.8506 32.8428 0 18.8506 -46.4232 0 -985.796 265.027 49.0207 -0.167742 -0.981892 0.189442 1 0.5 0 1
107 1 61.4216 38.0238 0 61.4216 38.0238 0 -462.365 661.243 113.246 170.598 0.912763 -0.408489 1 0.5 0 1
108 1 78.9136 37.1824 0 -0.352383 116.448 0 -166.564 -160.4 124.487 94.5044 -0.256769 -0.966473 1 0.5 0 1
109 1 28.0079 34.9137 0 -51.2581 114.18 0 -813.427 78.0636 107.431 24.265 0.623822 0.781567 1 0.5 0 1
110 1 50.2018 31.6152 0 50.2018 31.6152 0 -239.451 -58.855 68.5664 59.7455 0.866831 0.498601 1 0.5 0 1
111 1 73.8821 14.4163 0 73.8821 93.6823 0 -86.3694 -64.1431 110.171 96.26 0.073561 0.997291 1 0.5 0 1
112 1 11.9964 50.6556 0 11.9964 50.6556 0 805.772 -5.10162 -502.75 -36.6921 0.555205 0.831713 1 0.5 0 1
113 1 11.5308 27.0767 0 -67.7352 106.343 0 755.727 -498.389 -72.4004 53.4883 -0.993539 -0.113493 1 0.5 0 1
114 1 53.854 55.9166 0 53.854 55.9166 0 -863.969 -392.125 122.219 -177.666 0.440824 -0.897593 1 0.5 0 1
115 1 40.7712 45.7013 0 40.7712 -33.5647 0 1050 -305.41 -107.464 -68.0338 0.989893 0.141818 1 0.5 0 1
116 1 56.4369 71.5472 0 56.4369 -86.9848 0 -309.452 165.771 -36.9941 -69.4096 -0.391452 -0.920199 1 0.5 0 1
117 1 64.8985 68.0723 0 64.8985 -11.1937 0 -135.207 603.083 90.7937 -77.0492 0.789182 0.614159 1 0.5 0 1
118 1 54.3915 42.2879 0 54.3915 42.2879 0 -358.398 130.395 314.243 312.566 0.444028 -0.896013 1 0.5 0 1
119 1 37.2664 61.6424 0 195.798 -17.6236 0 160.814 804.142 -3.62463 -45.5552 0.125551 -0.992087 1 0.5 0 1
120 1 44.8283 51.4405 0 124.094 -27.8255 0 -112.566 75.6061 143.09 129.88 -0.0921998 -0.995741 1 0.5 0 1
121 1 58.3945 74.713 0 -100.138 -4.55295 0 603.043 -88.9732 12.6278 -99.1995 0.126278 -0.991995 1 0.5 0 1
122 1 29.0223 45.0373 0 29.0223 124.303 0 349.953 -369.59 53.6137 3.08075 0.395233 -0.918581 1 0.5 0 1
123 1 73.0682 31.8048 0 -6.19784 31.8048 0 -242.523 105.39 9.61262 44.0046 -0.220143 0.975468 1 0.5 0 1
124 1 26.9698 51.822 0 -52.2962 -27.444 0 -201.083 635.348 4.90434 -56.1099 -0.175073 -0.984556 1 0.5 0 1
125 1 64.57 29.134 0 64.57 29.134 0 -344.708 167.578 -30.7924 43.2812 -0.815603 0.578611 1 0.5 0 1
126 1 8.27634 36.2921 0 87.5423 115.558 0 410.859 -374.947 93.4761 90.2275 0.992051 -0.125834 1 0.5 0 1
127 1 57.1625 31.3945 0 57.1625 110.661 0 420.081 491.008 -70.15 -73.7896 -0.499903 0.866081 1 0.5 0 1
128 1 1.2832 26.0644 0 -77.9828 26.0644 0 630.81 -190.442 108.069 62.1375 -0.994137 0.108128 1 0.5 0 1
129 1 68.5783 57.3587 0 68.5783 -21.9073 0 1042.51 -211.422 28.7632 19.7712 -0.74336 0.668892 1 0.5 0 1
130 1 74.7193 56.6365 0 74.7193 -22.6295 0 716.179 198.402 -221.63 -74.5256 -0.876513 -0.481378 1 0.5 0 1
131 1 2.86827 72.5831 0 2.86827 72.5831 0 -41.6005 -62.2322 -125.669 -111.383 0.239103 -0.970994 1 0.5 0 1
132 1 59.2979 32.9751 0 -19.9681 112.241 0 -0.52372 67.72 -3.96847 10.2201 0.570266 0.82146 1 0.5 0 1
133 1 16.5259 51.8834 0 16.5259 131.149 0 114.279 21.1574 -55.5049 -146.459 -0.88556 -0.464524 1 0.5 0 1
134 1 11.5937 39.0565 0 11.5937 39.0565 0 -303.126 398.594 -56.4514 -52.8076 -0.500238 -0.865888 1 0.5 0 1
135 1 21.5128 60.0585 0 21.5128 139.324 0 26.1648 427.483 80.6692 7.56662 0.119741 0.992805 1 0.5 0 1
136 1 27.3032 18.9787 0 106.569 177.511 0 719.829 239.691 28.0513 -64.7241 0.0525338 0.998619 1 0.5 0 1
137 1 38.4094 43.0702 0 117.675 43.0702 0 903.828 -5.17191 -40.3159 -72.6468 0.988331 0.152319 1 0.5 0 1
138 1 47.9205 53.3478 0 -31.3455 -25.9182 0 -497.195 -140.837 128.464 -23.4012 -0.612871 0.790183 1 0.5 0 1
139 1 44.0366 43.8653 0 44.0366 -35.4007 0 -177.313 -247.965 151.147 -121.075 -0.341669 -0.93982 1 0.5 0 1
140 1 3.25299 13.0728 0 3.25299 13.0728 0 92.6433 -250.493 -155.623 107.676 -0.824416 0.565985 1 0.5 0 1
141 1 11.7674 58.6802 0 11.7674 58.6802 0 -227.693 852.577 -6.9191 -48.2216 0.908066 -0.418827 1 0.5 0 1
142 1 21.5028 41.9808 0 -57.7632 121.247 0 796.111 190.854 -157.71 214.056 0.135821 0.990733 1 0.5 0 1
143 1 10.1781 36.8776 0 10.1781 116.144 0 -399.886 116.117 68.1111 97.219 -0.35506 0.934844 1 0.5 0 1
144 1 19.1364 26.0902 0 19.1364 26.0902 0 378.537 248.242 81.7222 -54.287 0.717483 -0.696576 1 0.5 0 1
145 1 15.2494 65.1682 0 94.5154 65.1682 0 -124.987 412.467 136.933 183.372 -0.0366681 -0.999327 1 0.5 0 1
146 1 61.1629 63.3161 0 61.1629 -15.9499 0 22.1013 179.69 142.32 -58.519 0.983543 -0.180673 1 0.5 0 1
147 1 2.08088 68.5562 0 81.3469 -10.7098 0 435.298 674.141 -92.3905 24.4275 -0.884655 0.466246 1 0.5 0 1
148 1 51.0741 59.8928 0 130.34 59.8928 0 461.698 18.5007 21.3436 -3.7486 -0.421793 0.906692 1 0.5 0 1
149 1 70.4736 31.8946 0 70.4736 111.161 0 -806.492 146.632 0.743668 81.8225 -0.96712 0.254322 1 0.5 0 1
150 1 66.5509 36.9705 0 -12.7151 36.9705 0 895.911 343.229 -135.098 -260.627 0.984536 0.175183 1 0.5 0 1
151 1 5.26215 58.7434 0 84.5281 -20.5226 0 -799.042 -255.846 122.647 22.9471 0.0884867 -0.996077 1 0.5 0 1
152 1 64.4838 66.1011 0 64.4838 66.1011 0 182.575 -64.7484 -2.6579 -0.044725 0.290701 -0.956814 1 0.5 0 1
153 1 77.4458 60.1506 0 77.4458 60.1506 0 425.814 280.434 197.706 -270.892 0.92112 -0.389279 1 0.5 0 1
154 1 3.99811 51.3352 0 3.99811 51.3352 0 166.739 170.269 17.3645 -160.103 0.682861 0.730548 1 0.5 0 1
155 1 71.2012 68.1807 0 -87.3308 -11.0853 0 -588.222 561.366 -70.5402 -129.162 -0.329138 0.944282 1 0.5 0 1
156 1 74.5519 48.5131 0 74.5519 48.5131 0 -4.09881 -322.037 -208.409 45.9554 -0.970219 -0.242231 1 0.5 0 1
157 1 4.24223 30.4139 0 4.24223 30.4139 0 405.403 99.8394 83.2203 -103.784 0.936833 -0.349777 1 0.5 0 1
158 1 67.1796 39.882 0 -12.0864 39.882 0 210.069 -28.2216 69.7921 -29.9138 0.769747 -0.638349 1 0.5 0 1
159 1 5.71035 15.8085 0 5.71035 95.0745 0 789.721 -839.766 -94.3708 58.9206 -0.858896 0.51215 1 0.5 0 1
160 1 59.1994 15.7675 0 59.1994 15.7675 0 -0.749055 738.226 21.215 -29.347 0.941256 0.337695 1 0.5 0 1
161 1 5.40861 11.502 0 5.40861 -67.764 0 30.9992 644.341 17.4356 -9.1679 -0.966017 0.258479 1 0.5 0 1
162 1 7.62944 53.9791 0 7.62944 53.9791 0 -28.4666 13.3754 -1.68127 79.9562 0.00503689 -0.999987 1 0.5 0 1
163 1 63.392 50.3985 0 63.392 50.3985 0 287.477 470.547 7.04818 -108.307 0.941375 -0.337362 1 0.5 0 1
164 1 58.7608 64.4449 0 58.7608 -14.8211 0 -354.552 -200.574 95.27 34.6069 0.77568 0.631126 1 0.5 0 1
165 1 46.5069 13.2152 0 46.5069 92.4812 0 -538.824 -490.582 61.8483 78.5798 0.618483 0.785798 1 0.5 0 1
166 1 10.0388 45.8716 0 10.0388 45.8716 0 -137.788 54.3133 42.3932 -104.587 0.724175 0.689617 1 0.5 0 1
167 1 63.8912 29.8369 0 63.8912 29.8369 0 183.91 -98.0312 -144.242 98.656 0.383621 -0.923491 1 0.5 0 1
168 1 13.4184 65.7295 0 -65.8476 65.7295 0 786.394 -317.473 220.99 -4.96285 -0.288301 -0.95754 1 0.5 0 1
169 1 23.6758 54.648 0 -55.5902 133.914 0 -540.752 -793.479 91.0298 0.873825 -0.72947 -0.684012 1 0.5 0 1
170 1 22.8147 59.6122 0 102.081 138.878 0 7.03371 535.682 56.2537 -9.69116 0.919875 0.392213 1 0.5 0 1
171 1 61.4177 68.9029 0 140.684 -10.3631 0 -193.555 869.247 -70.8601 5.99308 0.86016 -0.510024 1 0.5 0 1
172 1 10.0479 59.1304 0 10.0479 -20.1356 0 -1005.96 -368.969 -106.1 51.5497 0.90306 -0.429515 1 0.5 0 1
173 1 53.0943 19.6921 0 53.0943 -59.5739 0 120.479 156.237 144.875 7.5535 0.799147 0.601136 1 0.5 0 1
174 1 11.1257 53.1334 0 11.1257 53.1334 0 -264.818 -194.233 -77.1507 -15.5899 -0.937545 0.347865 1 0.5 0 1
175 1 55.6315 67.0496 0 -23.6345 -12.2164 0 280.411 -189.081 95.9827 77.3448 0.243036 0.970017 1 0.5 0 1
176 1 12.5315 51.7015 0 12.5315 51.7015 0 -1354.32 172.727 88.0917 28.6413 0.651347 0.75878 1 0.5 0 1
177 1 4.26141 70.2628 0 4.26141 70.2628 0 -139.395 -263.665 18.0969 -88.263 -0.61272 -0.7903 1 0.5 0 1
178 1 56.7049 29.4047 0 -22.5611 108.671 0 -810.595 -634.845 127.992 -101.761 -0.954043 -0.299669 1 0.5 0 1
179 1 5.74785 57.076 0 5.74785 -22.19 0 202.642 593.223 -73.3178 -14.4092 0.79023 -0.61281 1 0.5 0 1
180 1 73.8635 41.9804 0 73.8635 41.9804 0 -155.88 -301.023 72.1159 -4.67133 -0.47969 -0.877438 1 0.5 0 1
181 1 77.1719 11.8463 0 77.1719 11.8463 0 -670.767 538.907 73.0309 -45.3515 0.847107 0.531423 1 0.5 0 1
182 1 7.15957 71.5091 0 -72.1064 71.5091 0 867.536 62.3438 -0.279582 21.3364 -0.793101 -0.60909 1 0.5 0 1
183 1 58.8647 58.1949 0 58.8647 -21.0711 0 -429.709 451.055 73.955 52.2803 -0.876644 -0.481139 1 0.5 0 1
184 1 63.4817 43.2215 0 63.4817 43.2215 0 99.977 -478.138 29.0447 -62.0709 -0.449736 -0.893162 1 0.5 0 1
185 1 56.6138 17.9584 0 -22.6522 17.9584 0 501.741 -930.48 -76.9142 -44.1724 0.997093 -0.0761937 1 0.5 0 1
186 1 21.8712 44.0573 0 -57.3948 123.323 0 632.029 -382.596 34.3545 90.3273 -0.377646 0.92595 1 0.5 0 1
187 1 55.4143 35.3331 0 -23.8517 114.599 0 853.563 456.218 153.91 227.461 0.286989 0.957934 1 0.5 0 1
188 1 65.1652 15.2916 0 144.431 94.5576 0 -376.584 398.994 84.2662 -81.6928 0.89138 0.453256 1 0.5 0 1
189 1 0.304848 0.414451 0 0.304848 79.6805 0 281.659 388.979 92.2965 38.4885 0.922965 0.384885 1 0.5 0 1
190 1 22.0758 52.4943 0 -57.1902 52.4943 0 412.956 378.265 78.2084 2.79374 0.470817 0.882231 1 0.5 0 1
191 1 74.6882 75.758 0 153.954 -3.508 0 741.826 697.835 -71.8273 35.3141 0.790818 -0.612051 1 0.5 0 1
192 1 58.8254 38.144 0 58.8254 38.144 0 -307.766 -174.539 -134.142 196.501 0.640902 -0.767623 1 0.5 0 1
193 1 76.4793 13.5256 0 -2.78669 92.7916 0 -152.308 -759.353 -119.639 -0.872848 0.300507 0.953779 1 0.5 0 1
194 1 13.6576 28.6255 0 13.6576 -50.6405 0 -656.315 -31.6786 -18.9116 11.3702 -0.996198 0.0871162 1 0.5 0 1
195 1 53.5648 30.9917 0 53.5648 30.9917 0 307.965 23.1358 5.27386 74.0033 0.610966 0.791657 1 0.5 0 1
196 1 58.75 41.7492 0 58.75 41.7492 0 431.366 -354.778 20.0315 -39.1552 0.735476 -0.67755 1 0.5 0 1
197 1 72.2266 61.2107 0 -7.03939 61.2107 0 -361.468 481.06 62.6636 -70.5217 0.619897 -0.784683 1 0.5 0 1
198 1 73.8017 45.5843 0 73.8017 45.5843 0 -189.342 342.094 -81.63 -38.6712 -0.756242 0.654292 1 0.5 0 1
199 1 68.7263 69.2529 0 -10.5397 -10.0131 0 425.308 20.6411 172.693 44.8068 0.178826 -0.983881 1 0.5 0 1
200 1 1.56047 18.0401 0 80.8265 97.3061 0 -344.069 391.856 -100.196 -27.7626 -0.363666 0.931529 1 0.5 0 1
201 1 63.7381 12.9583 0 -15.5279 92.2243 0 -442.049 197.827 -41.1831 -19.103 0.810952 0.585113 1 0.5 0 1
202 1 56.7087 60.3392 0 -22.5573 -18.9268 0 155.993 186.345 -117.141 17.2731 0.963322 0.268347 1 0.5 0 1
203 1 17.7636 42.8321 0 -61.5024 122.098 0 -525.402 160.481 -58.3354 26.1393 -0.983781 -0.179374 1 0.5 0 1
204 1 65.699 63.7001 0 65.699 -15.5659 0 24.58 -178.29 -38.6729 62.7476 -0.799048 -0.601268 1 0.5 0 1
205 1 48.6996 22.0598 0 48.6996 101.326 0 173.147 662.146 22.8443 28.425 0.685911 0.727686 1 0.5 0 1
206 1 4.77852 60.467 0 4.77852 -18.799 0 -13.1917 986.722 -5.25797 -106.151 -0.67674 -0.736222 1 0.5 0 1
207 1 60.4453 64.0017 0 60.4453 64.0017 0 166.467 202.047 54.379 218.077 0.99868 0.0513675 1 0.5 0 1
208 1 8.56322 33.6412 0 8.56322 33.6412 0 -344.488 501.071 129.784 90.6372 0.648386 0.761312 1 0.5 0 1
209 1 52.9341 28.0016 0 52.9341 107.268 0 356.118 395.004 50.4405 -112.763 0.87718 -0.480162 1 0.5 0 1
210 1 67.1733 62.3692 0 -12.0927 62.3692 0 516.788 98.3243 -45.6574 77.3765 0.182387 0.983227 1 0.5 0 1
211 1 60.8531 43.2827 0 60.8531 43.2827 0 65.333 121.734 -91.0742 -33.0473 -0.0574303 -0.99835 1 0.5 0 1
212 1 21.7894 47.739 0 180.321 47.739 0 -260.213 -119.537 -30.3491 217.823 0.00862864 0.999963 1 0.5 0 1
213 1 70.501 65.1912 0 70.501 65.1912 0 324.255 686.598 164.978 -251.785 -0.854489 -0.51947 1 0.5 0 1
214 1 38.0243 33.1831 0 38.0243 33.1831 0 -274.545 248.482 36.0423 -29.8882 0.419505 -0.907753 1 0.5 0 1
215 1 55.1763 61.88 0 55.1763 -17.386 0 -890.791 711.191 386.933 87.0497 0.746729 0.665128 1 0.5 0 1
216 1 15.5404 47.7667 0 15.5404 127.033 0 684.484 161.054 179.744 14.0529 -0.555672 0.831401 1 0.5 0 1
217 1 9.18752 0.19282 0 167.72 79.4588 0 557.485 133.103 -36.0848 -31.6584 0.899435 -0.437055 1 0.5 0 1
218 1 46.2988 50.0539 0 46.2988 50.0539 0 462.274 -97.6798 26.116 100.992 -0.805839 -0.592135 1 0.5 0 1
219 1 53.3415 45.6756 0 53.3415 45.6756 0 -128.066 -427.531 5.63419 85.4005 -0.0883927 -0.996086 1 0.5 0 1
220 1 63.9287 67.8119 0 63.9287 -90.7201 0 -511.595 783.72 -44.646 11.0166 0.31356 0.949568 1 0.5 0 1
221 1 45.7577 2.31518 0 -33.5083 160.847 0 -408.933 -523.807 -61.8946 -109.357 0.0264462 -0.99965 1 0.5 0 1
222 1 42.2032 32.2459 0 42.2032 32.2459 0 200.643 -183.062 -10.7994 46.5568 0.841529 -0.540212 1 0.5 0 1
223 1 72.0623 37.8016 0 -7.20371 37.8016 0 -579.404 -135.399 -58.4641 163.549 0.984231 -0.176889 1 0.5 0 1
224 1 76.9684 61.7306 0 -2.29759 61.7306 0 -245.409 -205.817 -95.9356 -217.714 -0.186587 -0.982439 1 0.5 0 1
225 1 12.4118 26.1731 0 91.6778 -53.0929 0 -190.387 -842.048 65.9857 112.174 -0.104971 -0.994475 1 0.5 0 1
226 1 26.1652 54.7734 0 -53.1008 -24.4926 0 -324.013 -281.129 21.7493 -43.7973 -0.00420986 -0.999991 1 0.5 0 1
227 1 1.56295 37.7671 0 80.8289 37.7671 0 288.071 -298.876 66.6534 -52.684 -0.71558 -0.698531 1 0.5 0 1
228 1 16.4774 62.7924 0 -62.7886 -16.4736 0 3.14972 270.076 17.5326 -111.645 -0.270073 -0.96284 1 0.5 0 1
229 1 51.5851 41.402 0 51.5851 41.402 0 307.328 -102.126 139.185 131.242 -0.82398 -0.566618 1 0.5 0 1
230 1 52.0983 39.7537 0 52.0983 119.02 0 611.244 -308.68 -205.456 -154.233 -0.933545 -0.358459 1 0.5 0 1
231 1 3.72282 24.8475 0 3.72282 104.114 0 -752.456 -22.684 258.223 1.79541 -0.892235 0.451571 1 0.5 0 1
232 1 45.4433 27.4856 0 45.4433 -51.7804 0 -116.839 180.936 -95.0653 -107.966 0.834432 0.55111 1 0.5 0 1
233 1 8.2634 47.2361 0 8.2634 47.2361 0 383.266 -920.629 131.708 68.3159 0.552348 0.833613 1 0.5 0 1
234 1 70.1674 10.3752 0 70.1674 10.3752 0 517.123 387.466 -32.9293 17.4009 0.0303848 0.999538 1 0.5 0 1
235 1 24.5226 51.1491 0 24.5226 130.415 0 514.76 713.899 63.1827 86.122 -0.245628 0.969364 1 0.5 0 1
236 1 55.8083 68.7638 0 135.074 -10.5022 0 -343.849 556.067 -59.7727 60.1393 0.988602 -0.15055 1 0.5 0 1
237 1 71.1108 71.7998 0 71.1108 -7.46618 0 282.052 -5.13935 17.7776 -56.8593 0.594966 -0.803751 1 0.5 0 1
238 1 68.2361 21.87 0 68.2361 101.136 0 504.67 11.3321 122.624 92.1919 0.990034 0.140826 1 0.5 0 1
239 1 2.95754 43.7687 0 82.2235 43.7687 0 4.90214 307.162 23.7219 71.628 0.707055 -0.707159 1 0.5 0 1
240 1 71.808 17.4862 0 71.808 17.4862 0 -116.171 -97.5561 -2.13405 12.3005 0.762536 -0.646946 1 0.5 0 1
241 1 48.1219 37.4473 0 48.1219 37.4473 0 -301.651 374.06 38.5944 2.64324 0.313998 -0.949424 1 0.5 0 1
242 1 6.89565 64.6583 0 86.1616 -14.6077 0 565.012 -175.644 -261.933 -76.9878 0.999919 0.0127174 1 0.5 0 1
243 1 58.4013 72.3348 0 -100.131 72.3348 0 663.39 627.205 -57.9553 -48.4395 -0.73854 -0.67421 1 0.5 0 1
244 1 60.1823 25.0411 0 60.1823 104.307 0 363.322 -51.6596 -236.955 -117.041 0.157771 -0.987476 1 0.5 0 1
245 1 56.6354 52.0892 0 56.6354 52.0892 0 1060.75 -576.777 19.1777 93.0294 0.850984 -0.525192 1 0.5 0 1
246 1 49.1963 42.578 0 49.1963 42.578 0 104.846 360.663 -77.5236 -58.5649 0.910556 -0.413385 1 0.5 0 1
247 1 67.92 54.4317 0 67.92 -24.8343 0 934.065 -619.411 -48.0447 158.061 0.0262139 -0.999656 1 0.5 0 1
248 1 58.4496 13.2934 0 -20.8164 13.2934 0 210.703 -322.803 99.9321 3.68401 0.999321 0.0368401 1 0.5 0 1
249 1 40.5606 44.6917 0 119.827 -34.5743 0 246.698 -941.81 109.147 42.0674 0.625725 0.780043 1 0.5 0 1
250 1 56.3775 69.6012 0 214.909 69.6012 0 210.137 -725.309 165.418 -156.613 -0.464593 -0.885524 1 0.5 0 1
251 1 63.4699 15.7759 0 63.4699 174.308 0 671.541 151.229 -101.586 -54.807 0.829972 0.557805 1 0.5 0 1
252 1 59.8273 22.1944 0 59.8273 101.46 0 545.224 -553.833 -32.3745 -80.1925 -0.88726 -0.461269 1 0.5 0 1
253 1 17.0253 50.1249 0 17.0253 50.1249 0 802.373 -430.441 -279.383 34.4129 -0.977842 -0.209345 1 0.5 0 1
254 1 47.4513 34.4579 0 47.4513 113.724 0 -692.843 -87.5916 -10.4225 36.9275 0.429193 -0.903213 1 0.5 0 1
255 1 0.821748 34.8462 0 80.0877 114.112 0 124.191 -113.618 -34.7015 -7.49082 -0.753009 0.65801 1 0.5 0 1
256 1 68.7614 43.1608 0 -10.5046 43.1608 0 -150.153 -96.0153 -87.3934 65.1867 -0.723147 0.690694 1 0.5 0 1
257 1 7.24417 39.6721 0 7.24417 118.938 0 542.786 -14.0003 -28.0877 -10.7189 -0.621801 0.783175 1 0.5 0 1
258 1 6.46475 28.2907 0 6.46475 -50.9753 0 64.1221 210.587 6.19896 201.099 0.798104 0.602519 1 0.5 0 1
259 1 31.2936 24.1438 0 31.2936 24.1438 0 125.871 -813.127 -47.4588 -88.0208 -0.474588 -0.880208 1 0.5 0 1
260 1 71.6457 70.129 0 150.912 -9.13702 0 -214.54 810.226 131.464 -16.8978 0.993277 -0.115759 1 0.5 0 1
261 1 10.3927 23.9151 0 10.3927 23.9151 0 412.536 -901.475 -101.835 78.9441 -0.912138 0.409883 1 0.5 0 1
262 1 56.8956 61.3166 0 136.162 -17.9494 0 -104.156 585.066 -64.6998 -80.9405 -0.523108 -0.852267 1 0.5 0 1
263 1 0.23181 72.565 0 -79.0342 -85.967 0 -67.706 63.1284 19.0439 -57.9473 0.389088 -0.921201 1 0.5 0 1
264 1 17.8291 37.7528 0 176.361 -41.5132 0 -53.2697 952.38 100.133 -124.372 -0.668359 -0.743839 1 0.5 0 1
265 1 52.3924 29.6251 0 52.3924 108.891 0 -196.765 -243.305 81.2695 -18.0645 0.670487 -0.741921 1 0.5 0 1
266 1 56.1124 53.7755 0 56.1124 53.7755 0 683.395 395.474 -163.786 56.2106 0.756425 0.654081 1 0.5 0 1
267 1 73.7028 63.4189 0 -5.56321 -15.8471 0 -676.179 -332.611 -37.2834 181.819 -0.665306 -0.746571 1 0.5 0 1
268 1 67.6409 60.6759 0 67.6409 60.6759 0 -339.434 -296.012 101.301 280.807 0.996609 0.0822869 1 0.5 0 1
269 1 27.9689 61.0597 0 107.235 61.0597 0 12.3681 -440.845 99.9921 -1.25806 0.999921 -0.0125806 1 0.5 0 1
270 1 12.065 70.9991 0 12.065 -8.26687 0 1002.42 55.2827 -3.69016 5.87408 -0.387153 -0.922016 1 0.5 0 1
271 1 15.9914 7.7796 0 95.2574 7.7796 0 -88.9609 272.935 45.139 -89.861 0.998817 -0.0486221 1 0.5 0 1
272 1 51.1349 39.4732 0 51.1349 39.4732 0 -7.28393 82.1682 75.954 -111.553 0.374273 0.927319 1 0.5 0 1
273 1 59.9812 51.1738 0 59.9812 51.1738 0 -535.594 -585.894 89.3787 107.79 -0.954296 0.298864 1 0.5 0 1
274 1 27.3413 25.9385 0 106.607 25.9385 0 155.105 211.232 -65.7955 94.4264 0.431313 0.902202 1 0.5 0 1
275 1 9.54397 64.526 0 88.81 -14.74 0 390.287 -134.824 -54.9396 49.9676 0.621843 0.783142 1 0.5 0 1
276 1 57.8904 46.102 0 57.8904 46.102 0 371.247 249.517 40.938 24.3956 -0.0466076 0.998913 1 0.5 0 1
277 1 37.4553 71.0114 0 37.4553 -8.25458 0 289.714 -120.981 60.7783 -79.4103 0.607783 -0.794103 1 0.5 0 1
278 1 9.51766 33.9181 0 -69.7483 113.184 0 -34.8182 -304.419 29.0279 -29.8967 -0.546863 -0.837222 1 0.5 0 1
279 1 17.0452 43.5728 0 96.3112 -114.959 0 657.64 132.146 -42.331 32.3931 -0.543279 0.839552 1 0.5 0 1
280 1 3.05931 73.6925 0 -76.2067 -84.8395 0 173.496 540.705 96.0482 56.845 -0.440229 -0.897885 1 0.5 0 1
281 1 69.3422 56.6702 0 69.3422 56.6702 0 64.3469 31.875 -64.1039 -0.183682 -0.958195 -0.286116 1 0.5 0 1
282 1 47.7868 48.6785 0 47.7868 -30.5875 0 233.105 540.68 -38.5117 -217.475 0.923842 -0.382773 1 0.5 0 1
283 1 68.879 32.287 0 -10.387 111.553 0 -483.42 -525.036 -5.0723 -19.864 -0.45507 -0.890455 1 0.5 0 1
284 1 5.22751 30.6777 0 5.22751 109.944 0 385.317 -12.4078 -57.516 9.28968 0.801829 -0.597554 1 0.5 0 1
285 1 65.3338 35.6871 0 65.3338 35.6871 0 -110.131 55.08 -48.2762 -347.176 0.280601 -0.959825 1 0.5 0 1