ITEM: TIMESTEP
290000
ITEM: NUMBER OF ATOMS
4000
ITEM: BOX BOUNDS pp pp pp
0.0000000000000000e+00 7.9266000000000005e+01
0.0000000000000000e+00 7.9266000000000005e+01
-5.0000000000000000e-01 5.0000000000000000e-01
ITEM: ATOMS id type x y z xu yu zu vx vy fx fy mux muy mu radius omegaz mass
1 1 0.529855 64.069 0 79.7959 64.069 0 117.022 393.933 -82.901 65.1954 -0.995125 -0.0986186 1 0.5 0 1
2 1 53.8296 9.85258 0 53.8296 9.85258 0 463.925 1231.18 61.2476 69.5207 0.0674206 0.997725 1 0.5 0 1
3 1 15.4462 34.8764 0 15.4462 -44.3896 0 118.967 -437.739 -50.3968 61.1372 -0.623834 0.781557 1 0.5 0 1
4 1 36.1709 51.7111 0 36.1709 51.7111 0 -302.341 750.239 -43.8974 -83.8035 -0.442582 -0.896728 1 0.5 0 1
5 1 2.98238 30.63 0 2.98238 30.63 0 821.969 492.279 -10.5313 -36.0704 -0.968001 0.250945 1 0.5 0 1
6 1 69.9522 28.1584 0 -9.31378 28.1584 0 -200.345 -1153.75 9.65661 -179.011 -0.266555 -0.96382 1 0.5 0 1
7 1 67.2057 48.6156 0 67.2057 48.6156 0 -287.792 177.929 7.04135 -197.623 -0.0235531 0.999723 1 0.5 0 1
8 1 15.933 37.9396 0 15.933 -41.3264 0 281.863 918.348 -148.241 -68.1206 -0.999854 0.0170693 1 0.5 0 1
9 1 69.0231 25.3497 0 69.0231 25.3497 0 362.854 -273.945 0.851999 -163.66 -0.2897 -0.957117 1 0.5 0 1
10 1 17.8289 52.0686 0 17.8289 52.0686 0 247.434 -85.4955 4.42299 -129.235 -0.889714 -0.456518 1 0.5 0 1
11 1 30.3067 71.5508 0 -48.9593 -7.71519 0 329.548 -115.439 -100.175 -64.0883 -0.944665 0.328037 1 0.5 0 1
12 1 0.852294 21.9359 0 80.1183 101.202 0 889.043 -677.174 -170.823 119.782 0.051033 0.998697 1 0.5 0 1
13 1 75.2155 68.8425 0 75.2155 -10.4235 0 -247.692 275.627 -8.13928 -91.6971 0.1328 -0.991143 1 0.5 0 1
14 1 43.6384 29.9536 0 -114.894 29.9536 0 -262.405 832.101 -58.9962 -209.62 -0.0519431 0.99865 1 0.5 0 1
15 1 10.6387 33.342 0 10.6387 33.342 0 248.644 499.935 14.6714 29.0328 -0.916799 0.399348 1 0.5 0 1
16 1 17.5525 47.3791 0 -61.7135 -31.8869 0 656.641 619.248 -49.8477 -115.467 -0.99101 0.133785 1 0.5 0 1
17 1 40.8893 41.0676 0 120.155 120.334 0 309.161 140.913 -49.5146 17.4419 0.551706 0.834038 1 0.5 0 1
18 1 17.2415 56.5253 0 17.2415 56.5253 0 -16.0679 -488.598 29.2399 -47.8362 0.979983 -0.199082 1 0.5 0 1
19 1 4.20989 40.0729 0 4.20989 40.0729 0 130.676 -47.2 -180.685 -92.4531 0.779854 -0.625961 1 0.5 0 1
20 1 13.8481 55.2084 0 13.8481 55.2084 0 -426.017 -241.867 -87.8635 2.12608 0.712734 -0.701435 1 0.5 0 1
21 1 4.22936 27.2685 0 4.22936 27.2685 0 498.387 493.588 1.5554 -9.70963 -0.984128 0.177458 1 0.5 0 1
22 1 2.16672 20.4093 0 81.4327 20.4093 0 66.0846 76.5155 201.569 -83.2801 -0.890571 -0.454844 1 0.5 0 1
23 1 19.2293 30.8032 0 98.4953 30.8032 0 -228.759 -536.812 23.3132 94.1643 0.778873 0.627181 1 0.5 0 1
24 1 65.9502 56.2383 0 65.9502 -23.0277 0 214.82 -247.771 -138.943 246.376 0.81946 -0.573137 1 0.5 0 1
25 1 47.7022 30.1721 0 -31.5638 -49.0939 0 95.1383 521.139 115.004 -91.1424 0.981217 -0.192907 1 0.5 0 1
26 1 50.2773 56.5272 0 50.2773 -102.005 0 241.053 -158.22 12.0741 111.004 0.281734 -0.959493 1 0.5 0 1
27 1 74.5996 16.1304 0 -4.66635 95.3964 0 344.823 -207.177 15.095 54.9157 -0.217465 0.976068 1 0.5 0 1
28 1 38.1456 13.5268 0 38.1456 92.7928 0 205.123 14.8905 122.341 59.4947 0.78285 0.62221 1 0.5 0 1
29 1 74.1055 37.5158 0 -5.16048 37.5158 0 201.619 -481.288 -131.081 116.866 -0.918573 0.395252 1 0.5 0 1
30 1 62.8587 12.3609 0 62.8587 91.6269 0 584.341 26.1646 -52.798 -54.0995 0.841405 0.540405 1 0.5 0 1
31 1 74.6422 25.7588 0 -4.62381 25.7588 0 47.6017 680.808 81.8801 37.5957 -0.807757 0.589516 1 0.5 0 1
32 1 1.41753 12.2503 0 1.41753 12.2503 0 -1094.85 -352.613 -4.0907 -36.7495 -0.973789 0.227453 1 0.5 0 1
33 1 64.3729 57.4905 0 64.3729 -21.7755 0 -526.189 -310.741 -106.981 17.932 0.0781697 -0.99694 1 0.5 0 1
34 1 5.78372 43.3417 0 85.0497 43.3417 0 -260.46 317.123 -0.638871 132.241 0.219237 0.975672 1 0.5 0 1
35 1 25.5041 53.0084 0 -53.7619 53.0084 0 635.381 233.023 82.9268 -55.8851 0.829268 -0.558851 1 0.5 0 1
36 1 59.9323 56.7816 0 59.9323 -22.4844 0 108.706 180.732 -217.666 -131.5 0.982572 -0.18588 1 0.5 0 1
37 1 69.8171 41.4782 0 69.8171 41.4782 0 -32.1339 124.445 80.321 59.2326 -0.745757 0.666218 1 0.5 0 1
38 1 67.1194 11.1633 0 146.385 90.4293 0 -311.134 362.195 -110.788 -16.4924 -0.00710449 0.999975 1 0.5 0 1
39 1 14.7857 10.7527 0 94.0517 -68.5133 0 -549.899 105.742 -12.3463 99.2349 -0.123463 0.992349 1 0.5 0 1
40 1 41.0171 79.2612 0 -38.2489 79.2612 0 339.473 -160.972 64.0431 -4.53291 0.953193 0.302364 1 0.5 0 1
41 1 68.7151 51.831 0 68.7151 51.831 0 192.445 -484.995 -346.151 133.407 -0.49276 0.870165 1 0.5 0 1
42 1 73.983 58.7995 0 -5.28297 58.7995 0 388.915 -787.498 -125.275 41.2954 -0.337457 -0.941341 1 0.5 0 1
43 1 0.401956 11.9391 0 -78.864 91.2051 0 36.5959 21.3534 63.4097 38.0893 -0.845822 0.533466 1 0.5 0 1
44 1 64.7827 19.6496 0 64.7827 98.9156 0 26.4616 80.9725 36.8626 24.9523 -0.987719 0.156243 1 0.5 0 1
45 1 32.2322 35.849 0 32.2322 -43.417 0 285.772 -148.88 -31.6963 -94.8438 -0.316963 -0.948438 1 0.5 0 1
46 1 6.82089 40.1725 0 6.82089 40.1725 0 -495.234 642.317 10.232 124.269 -0.444558 0.89575 1 0.5 0 1
47 1 57.6605 59.717 0 57.6605 -19.549 0 -77.8856 120.937 231.943 104.572 0.567498 -0.823375 1 0.5 0 1
48 1 11.549 45.4025 0 11.549 45.4025 0 -79.3833 -473.716 82.6519 284.242 -0.916517 -0.399996 1 0.5 0 1
49 1 61.3062 10.082 0 61.3062 89.348 0 -879.036 191.391 -47.9608 78.4274 -0.615799 0.787903 1 0.5 0 1
50 1 28.4942 34.3517 0 28.4942 34.3517 0 -134.555 -85.2624 -155.671 17.2772 -0.985596 -0.169116 1 0.5 0 1
51 1 45.5363 77.8044 0 -33.7297 -1.46156 0 -474.857 56.0466 -90.6933 42.1275 -0.906933 0.421275 1 0.5 0 1
52 1 4.1481 31.9742 0 83.4141 31.9742 0 -479.305 -64.9392 -38.8307 201.279 0.129638 0.991561 1 0.5 0 1
53 1 10.7346 54.1461 0 10.7346 133.412 0 -187.137 -567.94 -3.4845 -158.727 -0.4792 0.877706 1 0.5 0 1
54 1 53.7012 28.8027 0 53.7012 28.8027 0 -408.371 -496.587 237.987 282.247 -0.418955 0.908007 1 0.5 0 1
55 1 21.1613 39.9733 0 100.427 119.239 0 -298.233 35.9857 114.783 -2.34659 -0.877659 0.479286 1 0.5 0 1
56 1 21.3245 45.2083 0 21.3245 45.2083 0 97.6599 629.422 -23.3019 -68.0449 0.913416 -0.407028 1 0.5 0 1
57 1 25.6978 30.3857 0 25.6978 109.652 0 499.514 270.458 -70.5689 70.8521 -0.705689 0.708521 1 0.5 0 1
58 1 68.2914 26.0792 0 -10.9746 26.0792 0 -417.187 112.53 142.617 72.4878 -0.998051 -0.0624036 1 0.5 0 1
59 1 52.7017 32.9243 0 52.7017 32.9243 0 -262.896 734.335 56.2355 235.411 -0.971646 -0.236441 1 0.5 0 1
60 1 56.5565 39.6928 0 56.5565 39.6928 0 -234.184 157.615 -54.6018 209.245 -0.270417 -0.962743 1 0.5 0 1
61 1 58.9608 43.2585 0 58.9608 43.2585 0 -55.6748 -235.101 -23.1046 82.7845 -0.0823685 0.996602 1 0.5 0 1
62 1 57.1755 18.7618 0 136.441 18.7618 0 14.4539 120.864 -19.7064 -48.9327 0.99923 -0.0392298 1 0.5 0 1
63 1 13.23 58.8794 0 -66.036 -20.3866 0 -1117.03 -139.973 36.4085 53.106 0.829751 0.558133 1 0.5 0 1
64 1 48.0346 27.4528 0 127.301 106.719 0 202.186 -1230.94 71.209 38.1806 0.539582 0.841933 1 0.5 0 1
65 1 75.0133 75.2589 0 154.279 75.2589 0 313.386 -610.804 34.626 81.1396 0.98959 -0.143914 1 0.5 0 1
66 1 13.0079 44.0605 0 92.2739 123.326 0 262.617 -290.505 128.979 -47.637 -0.752628 0.658446 1 0.5 0 1
67 1 54.3126 41.5724 0 54.3126 41.5724 0 708.155 -637.246 -48.2417 4.97055 -0.518306 -0.855195 1 0.5 0 1
68 1 14.6747 40.3297 0 14.6747 40.3297 0 -112.778 397.229 -70.8165 -203.39 -0.856053 0.516889 1 0.5 0 1
69 1 37.4788 35.3141 0 37.4788 35.3141 0 194.155 377.64 -17.8323 -80.3732 0.316974 -0.948434 1 0.5 0 1
70 1 49.0289 36.9932 0 49.0289 116.259 0 -187.76 185.382 87.8176 -10.772 0.983162 -0.182738 1 0.5 0 1
71 1 78.5468 13.5554 0 78.5468 13.5554 0 -462.129 169.034 -19.8038 -166.161 0.616151 0.787628 1 0.5 0 1
72 1 3.03281 55.7165 0 3.03281 55.7165 0 -82.3147 1068.09 56.6183 -153.259 -0.452018 -0.892009 1 0.5 0 1
73 1 4.15512 14.9394 0 4.15512 14.9394 0 592.263 180.08 49.4206 -29.4975 -0.989045 -0.147615 1 0.5 0 1
74 1 57.388 20.9233 0 57.388 100.189 0 -152.179 20.4754 14.5247 39.0587 0.494218 0.869338 1 0.5 0 1
75 1 75.6576 36.4389 0 -3.60845 36.4389 0 -74.1152 -83.6228 -152.217 -23.3373 -0.289607 0.957146 1 0.5 0 1
76 1 48.5517 24.6254 0 -30.7143 24.6254 0 -2.80347 -189.366 50.1144 8.23139 0.683463 0.729985 1 0.5 0 1
77 1 78.4302 32.906 0 -0.835806 32.906 0 1138.4 147.153 -235.258 4.8352 0.872724 0.488214 1 0.5 0 1
78 1 51.1214 4.58964 0 51.1214 83.8556 0 190.642 278.097 33.4232 94.2491 0.334232 0.942491 1 0.5 0 1
79 1 57.5441 79.026 0 -21.7219 79.026 0 145.747 721.196 -99.8147 6.08533 -0.998147 0.0608533 1 0.5 0 1
80 1 0.961585 25.4388 0 0.961585 -53.8272 0 384.529 329.538 58.911 46.9044 0.630323 0.776333 1 0.5 0 1
81 1 48.5096 34.0594 0 127.776 34.0594 0 917.98 652.625 -294.031 -258.63 -0.306487 -0.951875 1 0.5 0 1
82 1 0.905867 37.1095 0 0.905867 37.1095 0 75.167 -342.816 28.0606 4.25695 0.0280434 0.999607 1 0.5 0 1
83 1 41.2413 42.0152 0 120.507 121.281 0 -27.8895 -342.97 130.897 113.014 0.981098 -0.193513 1 0.5 0 1
84 1 76.3684 43.6811 0 -2.8976 43.6811 0 108.06 252.59 88.7239 -84.4058 -0.915297 -0.40278 1 0.5 0 1
85 1 63.5641 6.0793 0 63.5641 6.0793 0 61.6292 594.038 -16.7813 104.426 0.396621 0.917982 1 0.5 0 1
86 1 10.8733 38.896 0 10.8733 38.896 0 -487.268 151.316 49.0178 69.7659 -0.946585 0.322455 1 0.5 0 1
87 1 11.2839 40.8372 0 11.2839 40.8372 0 714.064 338.127 -33.3369 185.9 -0.742521 -0.669823 1 0.5 0 1
88 1 21.7657 63.3643 0 21.7657 -15.9017 0 255.778 513.45 -76.9553 -63.8583 -0.769553 -0.638583 1 0.5 0 1
89 1 40.1893 32.2718 0 40.1893 32.2718 0 378.68 -211.845 44.1499 -89.7262 0.441499 -0.897262 1 0.5 0 1
90 1 4.2646 36.5088 0 4.2646 36.5088 0 -197.526 -93.8772 -220.296 7.34529 -0.999844 -0.0176664 1 0.5 0 1
91 1 14.9353 57.5422 0 14.9353 -21.7238 0 -1023.59 42.2727 -49.7333 45.7947 -0.315452 -0.948942 1 0.5 0 1
92 1 2.52165 52.7865 0 2.52165 52.7865 0 -225.966 443.329 -86.8185 135.686 -0.923559 0.383456 1 0.5 0 1
93 1 1.4345 43.4576 0 1.4345 43.4576 0 139.82 -72.0632 -119.245 -49.4635 0.259347 0.965784 1 0.5 0 1
94 1 70.1244 35.2926 0 70.1244 35.2926 0 975.395 233.463 -79.0025 -118.751 0.636635 -0.771165 1 0.5 0 1
95 1 66.9956 47.6093 0 66.9956 47.6093 0 331.797 -16.0163 153.371 14.6905 0.200667 -0.97966 1 0.5 0 1
96 1 54.1319 40.5952 0 54.1319 40.5952 0 316.839 269.049 -50.8089 -71.8927 -0.457699 -0.889107 1 0.5 0 1
97 1 34.2605 62.8627 0 34.2605 -16.4033 0 409.417 -34.6013 -6.30231 -99.8012 -0.0630231 -0.998012 1 0.5 0 1
98 1 34.6233 53.5861 0 34.6233 53.5861 0 -179.877 38.6315 -67.7414 53.7357 -0.920006 0.391903 1 0.5 0 1
99 1 43.4362 39.853 0 43.4362 -39.413 0 83.6394 -98.3523 1.4091 -2.67619 0.68338 0.730063 1 0.5 0 1
100 1 72.6205 42.4219 0 72.6205 42.4219 0 852.758 -200.626 -222.695 37.9074 0.0506472 -0.998717 1 0.5 0 1
101 1 49.7818 46.0886 0 49.7818 -33.1774 0 103.556 -90.8857 100.536 -146.121 0.99672 0.0809301 1 0.5 0 1
102 1 78.3688 40.86 0 -0.89717 40.86 0 225.099 219.376 -77.5355 -26.3947 -0.860414 -0.509596 1 0.5 0 1
103 1 20.8874 68.9028 0 -58.3786 148.169 0 -746.555 -777.464 3.97046 99.9211 0.0397046 0.999211 1 0.5 0 1
104 1 53.553 42.1866 0 53.553 121.453 0 15.4578 -819.573 -8.2489 282.077 0.706797 0.707416 1 0.5 0 1
105 1 71.7081 11.4925 0 -7.55792 11.4925 0 289.585 -305.666 3.30515 -23.9588 0.983661 -0.180029 1 0.5 0 1
106 1 2.00156 73.2126 0 2.00156 -6.05337 0 -279.067 -797.376 67.592 40.1075 0.820523 -0.571614 1 0.5 0 1
107 1 62.0381 36.1216 0 62.0381 36.1216 0 498.941 570.907 129.098 40.7839 -0.461398 -0.887193 1 0.5 0 1
108 1 78.8181 34.8446 0 -0.44789 114.111 0 -296.761 -336.11 122.967 -98.2546 0.748821 -0.662772 1 0.5 0 1
109 1 24.6654 4.10018 0 -54.6006 83.3662 0 -224.28 -321.145 -65.9388 -13.1955 -0.770215 0.637784 1 0.5 0 1
110 1 51.1914 29.616 0 51.1914 29.616 0 727.491 388.844 15.3145 67.7889 -0.759095 0.65098 1 0.5 0 1
111 1 73.5908 12.1632 0 73.5908 91.4292 0 -369.493 13.2751 26.1457 -79.3811 -0.527796 0.849371 1 0.5 0 1
112 1 10.3554 47.6825 0 10.3554 47.6825 0 160.612 666.522 -40.9243 -197.662 0.863338 -0.504627 1 0.5 0 1
113 1 20.5205 21.0604 0 -58.7455 100.326 0 -649.706 331.295 -60.882 81.5231 -0.60879 0.793331 1 0.5 0 1
114 1 53.5461 53.0787 0 53.5461 53.0787 0 -281.921 -641.127 -98.7756 37.529 0.579654 -0.814863 1 0.5 0 1
115 1 29.3327 60.9143 0 29.3327 -18.3517 0 320.659 88.6962 19.0418 -41.9565 0.830466 -0.557069 1 0.5 0 1
116 1 18.8573 41.541 0 18.8573 -37.725 0 -803.094 -430.756 5.74013 -68.1931 0.257257 -0.966343 1 0.5 0 1
117 1 46.5664 21.3529 0 46.5664 21.3529 0 -834.195 -105.27 -36.3497 -3.8407 0.449649 -0.893205 1 0.5 0 1
118 1 54.8744 39.981 0 54.8744 39.981 0 -516.434 606.757 260.275 -129.32 0.959121 -0.282995 1 0.5 0 1
119 1 53.435 20.5592 0 132.701 20.5592 0 257.712 68.876 52.6745 -31.1946 0.769578 0.638552 1 0.5 0 1
120 1 46.166 50.4097 0 125.432 -28.8563 0 -214.423 -500.848 -139.002 53.3965 -0.0303918 -0.999538 1 0.5 0 1
121 1 41.2297 57.4688 0 -117.302 -21.7972 0 466.591 673.558 -94.406 -32.9775 -0.94406 -0.329775 1 0.5 0 1
122 1 38.9904 8.56602 0 38.9904 87.832 0 -786.413 -1061.74 -42.9229 -90.3196 -0.429229 -0.903196 1 0.5 0 1
123 1 75.0295 30.1836 0 -4.23654 30.1836 0 1026.76 130.964 70.2963 38.7238 -0.919967 0.391996 1 0.5 0 1
124 1 0.611618 3.87729 0 0.611618 3.87729 0 287.038 -121.125 -65.3236 -75.7155 -0.653236 -0.757155 1 0.5 0 1
125 1 66.6352 26.5583 0 66.6352 26.5583 0 -885.675 -711.832 116.007 252.896 0.220044 -0.97549 1 0.5 0 1
126 1 8.9497 33.7116 0 88.2157 112.978 0 -353.648 131.618 85.0985 70.8567 0.48021 0.877153 1 0.5 0 1
127 1 58.2837 29.4482 0 58.2837 108.714 0 -110.436 220.007 -186.119 -47.3866 0.601035 0.799223 1 0.5 0 1
128 1 3.49583 24.3127 0 -75.7702 24.3127 0 217.939 -394.144 -241.876 -109.206 -0.678132 0.73494 1 0.5 0 1
129 1 67.6578 55.9999 0 67.6578 -23.2661 0 98.1686 -485.499 -220.632 -9.94423 0.684296 -0.729204 1 0.5 0 1
130 1 73.5462 54.9778 0 73.5462 -24.2882 0 567.815 203.505 -21.6496 -373.347 0.314264 -0.949336 1 0.5 0 1
131 1 75.516 1.12787 0 -3.75003 80.3939 0 453.741 -303.886 36.7417 -31.5903 0.84986 -0.527008 1 0.5 0 1
132 1 60.367 31.0037 0 -18.899 110.27 0 -258.559 -528.038 -39.3408 126.336 0.948695 0.316192 1 0.5 0 1
133 1 20.2259 53.3163 0 20.2259 132.582 0 471.893 284.084 -45.194 21.5331 -0.615056 -0.788483 1 0.5 0 1
134 1 12.1301 36.6038 0 12.1301 36.6038 0 397.775 282.675 273.208 8.57952 -0.724825 -0.688933 1 0.5 0 1
135 1 13.8355 50.8288 0 13.8355 130.095 0 135.142 284.535 -61.4888 21.9265 -0.587151 0.809477 1 0.5 0 1
136 1 71.4296 74.5216 0 71.4296 74.5216 0 -231.343 180.665 98.9862 -14.2035 0.989862 -0.142035 1 0.5 0 1
137 1 48.0173 19.6548 0 127.283 98.9208 0 -20.6354 -403.169 -56.1808 -82.7268 -0.561808 -0.827268 1 0.5 0 1
138 1 48.0517 51.0601 0 -31.2143 -28.2059 0 968.693 -364.051 -241.794 -292.685 0.996653 -0.0817522 1 0.5 0 1
139 1 43.2729 42.4744 0 43.2729 -36.7916 0 621.631 -1128.78 -97.165 260.353 -0.147175 -0.98911 1 0.5 0 1
140 1 6.7126 13.6107 0 6.7126 13.6107 0 -653.489 -346.575 -0.581215 -7.95527 -0.845021 0.534733 1 0.5 0 1
141 1 8.33667 56.0336 0 8.33667 56.0336 0 272.005 931.8 -0.0628942 -102.236 0.552182 0.833723 1 0.5 0 1
142 1 49.8085 74.107 0 -29.4575 74.107 0 307.351 -438.478 -77.8122 -19.6385 -0.92484 -0.380355 1 0.5 0 1
143 1 10.8636 34.3193 0 10.8636 113.585 0 -77.1869 -135.088 17.122 136.903 0.918088 0.396376 1 0.5 0 1
144 1 23.7216 52.0872 0 23.7216 -27.1788 0 442.266 566.435 16.6357 98.6066 0.166357 0.986066 1 0.5 0 1
145 1 0.593886 76.879 0 79.8599 76.879 0 -115.729 -108.773 49.4805 162.082 0.532684 -0.846314 1 0.5 0 1
146 1 59.731 61.3708 0 59.731 -17.8952 0 649.31 -648.674 -179.671 61.3121 0.998096 -0.0616869 1 0.5 0 1
147 1 0.892402 67.137 0 80.1584 -12.129 0 -879.064 -1436.07 149.947 37.7017 -0.421307 -0.906918 1 0.5 0 1
148 1 49.4562 57.3025 0 128.722 57.3025 0 -190.08 345.451 35.4693 28.1992 0.654179 0.75634 1 0.5 0 1
149 1 72.15 29.6003 0 72.15 108.866 0 324.26 -494.493 -94.9835 112.137 -0.986005 -0.166716 1 0.5 0 1
150 1 67.1364 34.4432 0 -12.1296 34.4432 0 -55.3467 200.69 14.0143 116.321 0.142709 0.989765 1 0.5 0 1
151 1 2.11774 55.3476 0 81.3837 -23.9184 0 -339.909 656.029 -31.3561 -9.534 0.951755 -0.306859 1 0.5 0 1
152 1 58.5436 63.8796 0 58.5436 63.8796 0 -235.606 527.087 51.9882 5.11187 0.918833 -0.394647 1 0.5 0 1
153 1 75.6914 58.6167 0 75.6914 58.6167 0 -372.759 166.774 210.046 10.6648 0.968427 -0.249296 1 0.5 0 1
154 1 2.33776 47.3504 0 2.33776 47.3504 0 121.483 376.624 -78.0648 100.14 0.449406 0.893327 1 0.5 0 1
155 1 65.9727 64.8164 0 -92.5593 -14.4496 0 -62.0881 -598.331 34.252 63.3264 0.0889379 -0.996037 1 0.5 0 1
156 1 73.7383 47.1701 0 73.7383 47.1701 0 -84.4529 124.287 -270.698 197.662 -0.925473 0.378812 1 0.5 0 1
157 1 6.37132 27.6418 0 6.37132 27.6418 0 402.869 -471.177 6.73285 70.0567 0.98393 0.178554 1 0.5 0 1
158 1 67.3733 38.005 0 -11.8927 38.005 0 271.778 216.592 -209.309 19.2916 -0.347758 -0.937584 1 0.5 0 1
159 1 26.7926 68.1949 0 26.7926 68.1949 0 -58.924 106.059 -26.0341 35.8982 -0.942606 0.333908 1 0.5 0 1
160 1 77.3584 77.686 0 -1.90759 -1.57995 0 243.411 183.987 109.19 2.47387 0.227734 -0.973723 1 0.5 0 1
161 1 37.1191 45.368 0 37.1191 -33.898 0 -266.565 -284.059 -26.7327 -73.515 -0.320296 -0.947318 1 0.5 0 1
162 1 5.55802 50.3415 0 5.55802 50.3415 0 -939.078 14.4906 -159.097 -27.8079 -0.881998 -0.471254 1 0.5 0 1
163 1 63.811 48.2246 0 63.811 48.2246 0 278.288 1042.17 -102.068 -27.0349 -0.256876 0.966444 1 0.5 0 1
164 1 53.7452 65.2291 0 53.7452 -14.0369 0 -1235.75 457.29 29.4053 31.1402 0.601538 -0.798844 1 0.5 0 1
165 1 5.91962 10.4307 0 5.91962 10.4307 0 -522.22 658.949 12.5241 99.2126 0.125241 0.992126 1 0.5 0 1
166 1 10.097 43.1554 0 10.097 43.1554 0 138.474 -256.124 -14.8479 47.4272 0.764919 0.644127 1 0.5 0 1
167 1 65.9363 27.2771 0 65.9363 27.2771 0 237.946 105.492 -190.243 207.268 0.693824 -0.720144 1 0.5 0 1
168 1 34.8685 25.6841 0 -44.3975 104.95 0 209.264 -405.212 28.763 46.5951 -0.787695 0.616065 1 0.5 0 1
169 1 47.6789 68.3153 0 -31.5871 147.581 0 826.309 -6.65099 -47.3852 -3.19524 -0.985721 -0.168386 1 0.5 0 1
170 1 15.6117 50.56 0 94.8777 129.826 0 121.224 -12.9394 -82.137 -78.3375 -0.614688 0.78877 1 0.5 0 1
171 1 52.9427 11.444 0 132.209 11.444 0 213.848 274.873 -18.5822 -57.685 -0.201357 -0.979518 1 0.5 0 1
172 1 6.61591 56.2231 0 6.61591 -23.0429 0 -97.9651 -499.496 -108.143 -12.1108 0.215015 -0.976611 1 0.5 0 1
173 1 18.9781 48.1269 0 18.9781 -31.1391 0 -180.405 -229.245 144.108 77.8604 -0.0533238 -0.998577 1 0.5 0 1
174 1 8.25691 50.4877 0 8.25691 50.4877 0 464.145 135.911 43.106 -502.938 -0.675892 0.737001 1 0.5 0 1
175 1 52.7478 66.6775 0 -26.5182 -12.5885 0 -278.541 400.357 -27.9411 -86.4264 -0.16861 -0.985683 1 0.5 0 1
176 1 9.79437 49.2462 0 9.79437 49.2462 0 676.755 -187.322 71.4713 94.8001 0.140252 0.990116 1 0.5 0 1
177 1 6.48171 62.8745 0 6.48171 62.8745 0 306.729 -1030.01 24.2998 112.521 -0.928099 -0.372334 1 0.5 0 1
178 1 57.8251 27.5184 0 -21.4409 106.784 0 289.253 -587.928 58.1622 -112.994 -0.621763 0.783205 1 0.5 0 1
179 1 3.49499 53.1415 0 3.49499 -26.1245 0 -93.3726 -747.214 -107.262 -36.4889 -0.437378 -0.899278 1 0.5 0 1
180 1 73.8089 40.1418 0 73.8089 40.1418 0 -49.1819 -665.818 66.3747 123.725 -0.200594 0.979674 1 0.5 0 1
181 1 60.4615 14.8159 0 60.4615 14.8159 0 -28.3735 -72.34 -24.4489 48.4422 -0.458597 0.888645 1 0.5 0 1
182 1 31.711 73.2892 0 -47.555 73.2892 0 555.863 -245.501 -30.694 -9.51372 -0.999743 -0.0226528 1 0.5 0 1
183 1 58.8662 55.4353 0 58.8662 -23.8307 0 202.659 741.378 125.303 -44.3757 -0.382676 0.923883 1 0.5 0 1
184 1 63.7174 41.2855 0 63.7174 41.2855 0 66.3993 -377.415 67.3322 149.458 -0.673199 -0.739462 1 0.5 0 1
185 1 5.37612 77.1402 0 5.37612 -2.1258 0 283.485 228.056 -96.9876 10.3388 -0.922941 -0.384942 1 0.5 0 1
186 1 69.5046 9.9982 0 -9.76136 89.2642 0 -933.103 -193.424 129.588 56.1935 -0.991727 0.128364 1 0.5 0 1
187 1 56.3412 33.2857 0 -22.9248 112.552 0 -123.376 -514.574 -63.1199 10.9257 0.956819 -0.290685 1 0.5 0 1
188 1 52.9011 10.3679 0 132.167 89.6339 0 -182.728 65.4263 16.9405 60.6697 0.704264 0.709938 1 0.5 0 1
189 1 21.7038 59.4268 0 21.7038 59.4268 0 -225.008 -191.511 -28.9509 95.7175 -0.289509 0.957175 1 0.5 0 1
190 1 19.9883 52.2934 0 -59.2777 52.2934 0 -41.0933 -77.7687 -53.3812 -41.7414 -0.935691 -0.352821 1 0.5 0 1
191 1 65.6242 16.1861 0 144.89 16.1861 0 252.512 17.2981 -49.0585 -80.2431 -0.0330365 -0.999454 1 0.5 0 1
192 1 59.4343 36.1504 0 59.4343 36.1504 0 -205.307 -923.273 132.231 -5.81148 0.746225 -0.665694 1 0.5 0 1
193 1 63.9389 73.4106 0 -15.3271 73.4106 0 259.102 10.0484 114.847 -13.9688 0.689565 0.724224 1 0.5 0 1
194 1 17.6161 5.61017 0 17.6161 5.61017 0 29.4021 403.555 42.7788 -90.3879 0.427788 -0.903879 1 0.5 0 1
195 1 54.6579 29.1254 0 54.6579 29.1254 0 -77.1137 628.83 -178.887 42.2596 -0.823737 -0.566973 1 0.5 0 1
196 1 59.1402 39.6903 0 59.1402 39.6903 0 -302.261 176.846 -87.8722 101.989 -0.96047 -0.278382 1 0.5 0 1
197 1 70.7403 60.1586 0 -8.52574 60.1586 0 -764.819 -470.852 157.818 -32.6641 0.741866 0.670548 1 0.5 0 1
198 1 73.7856 43.6896 0 73.7856 43.6896 0 181.993 -63.6233 -58.139 -127.076 -0.548515 0.83614 1 0.5 0 1
199 1 62.9977 65.596 0 -16.2683 -13.67 0 -443.134 183.927 -21.0722 20.8137 0.139611 -0.990206 1 0.5 0 1
200 1 1.16043 11.2304 0 80.4264 90.4964 0 -430.182 -219.86 62.6037 11.1936 0.402103 0.915595 1 0.5 0 1
201 1 35.9724 47.1292 0 35.9724 47.1292 0 -155.791 -362.865 -5.15825 51.2403 0.632929 0.77421 1 0.5 0 1
202 1 56.5234 57.3033 0 -22.7426 -21.9627 0 191.246 -277.071 -39.3859 94.5311 0.834924 -0.550365 1 0.5 0 1
203 1 41.8935 4.0795 0 -37.3725 83.3455 0 123.929 526.161 -3.94407 99.9222 -0.0394407 0.999222 1 0.5 0 1
204 1 64.0743 62.069 0 64.0743 -17.197 0 104.99 -294.423 35.0429 -121.603 -0.667763 -0.744374 1 0.5 0 1
205 1 9.14432 69.9497 0 9.14432 69.9497 0 34.2924 -1227.63 -7.99445 99.6799 -0.0799445 0.996799 1 0.5 0 1
206 1 1.44312 56.9521 0 1.44312 -22.3139 0 270.569 -636.152 -21.2822 200.681 -0.254989 0.966944 1 0.5 0 1
207 1 55.3587 61.838 0 55.3587 61.838 0 -229.074 -238.591 142.188 48.0625 0.975256 0.221078 1 0.5 0 1
208 1 9.24234 31.0667 0 9.24234 31.0667 0 -691.478 -618.909 -155.769 -76.5933 -0.918669 0.395028 1 0.5 0 1
209 1 54.0302 26.2344 0 54.0302 105.5 0 73.1728 633.946 -163.869 60.8379 0.142395 0.98981 1 0.5 0 1
210 1 65.6736 60.8436 0 -13.5924 60.8436 0 74.3941 63.4557 129.812 158.447 -0.624985 0.780637 1 0.5 0 1
211 1 61.1485 41.2543 0 61.1485 41.2543 0 -587.065 -478.477 210.817 -63.6084 0.31226 -0.949997 1 0.5 0 1
212 1 47.1887 20.5295 0 205.721 20.5295 0 -230.974 479.116 137.033 -25.6801 0.626535 0.779393 1 0.5 0 1
213 1 68.567 64.0725 0 68.567 64.0725 0 -230.786 275.916 -23.3719 49.0912 0.880192 0.474618 1 0.5 0 1
214 1 40.5557 14.6624 0 40.5557 93.9284 0 195.453 367.332 -46.1461 -26.6703 -0.904398 -0.42669 1 0.5 0 1
215 1 54.9203 58.5392 0 54.9203 -20.7268 0 -262.155 419.266 21.6802 127.623 0.443466 -0.896291 1 0.5 0 1
216 1 15.2168 45.6888 0 15.2168 124.955 0 -420.441 110.541 137.523 -104.806 -0.71785 0.696198 1 0.5 0 1
217 1 30.8676 54.5154 0 110.134 54.5154 0 157.279 724.191 -27.1295 -54.7624 -0.139162 0.99027 1 0.5 0 1
218 1 46.477 47.824 0 46.477 47.824 0 650.457 -91.4806 -70.6077 -163.134 -0.615858 -0.787857 1 0.5 0 1
219 1 53.7138 43.1713 0 53.7138 43.1713 0 940.561 283.589 -122.331 -290.572 -0.452823 -0.8916 1 0.5 0 1
220 1 45.6922 0.128295 0 45.6922 -79.1377 0 103.92 -557.193 75.0775 -48.3773 0.836882 -0.547383 1 0.5 0 1
221 1 75.8755 3.24896 0 -3.39049 161.781 0 -780.302 -695.868 -82.7278 46.7173 -0.867776 0.496956 1 0.5 0 1
222 1 29.7553 3.55715 0 29.7553 3.55715 0 237.292 412.55 11.4318 72.6579 0.0934131 0.995627 1 0.5 0 1
223 1 71.9915 35.8795 0 -7.2745 35.8795 0 -807.65 -196.356 123.227 -87.3492 -0.888872 -0.458156 1 0.5 0 1
224 1 75.0022 60.1751 0 -4.26375 60.1751 0 -299.951 457.617 -117.707 70.4967 -0.53613 -0.844135 1 0.5 0 1
225 1 21.1267 34.089 0 100.393 -45.177 0 -383.304 837.702 -93.2719 -36.0605 -0.932719 -0.360605 1 0.5 0 1
226 1 6.50177 68.4806 0 6.50177 -10.7854 0 270.735 -403.952 -35.272 35.4016 -0.621193 0.783657 1 0.5 0 1
227 1 1.43741 35.4863 0 80.7034 35.4863 0 -445.86 -831.157 -9.63262 122.057 -0.821847 -0.569709 1 0.5 0 1
228 1 7.24121 3.40267 0 -72.0248 3.40267 0 -483.425 -418.64 -30.8349 -95.1273 -0.308349 -0.951273 1 0.5 0 1
229 1 52.0648 38.9254 0 52.0648 38.9254 0 -379.235 -665.841 53.613 118.104 -0.863059 -0.505103 1 0.5 0 1
230 1 52.6203 37.388 0 52.6203 116.654 0 -147.215 -586.937 312.964 -64.2522 -0.191564 0.98148 1 0.5 0 1
231 1 6.23363 20.8709 0 6.23363 100.137 0 128.602 837.563 -26.6905 13.1805 -0.957513 0.28839 1 0.5 0 1
232 1 48.9364 25.6174 0 48.9364 -53.6486 0 382.854 -572.339 -43.3074 72.5679 0.187955 0.982178 1 0.5 0 1
233 1 6.73649 43.7049 0 6.73649 43.7049 0 191.171 626.231 -199.008 143.086 -0.733754 0.679415 1 0.5 0 1
234 1 19.1903 56.1377 0 19.1903 -23.1283 0 -177.407 290.888 33.8321 -60.3894 0.716062 0.698037 1 0.5 0 1
235 1 35.0916 37.2431 0 35.0916 116.509 0 -539.96 -12.3183 90.2305 -36.5248 0.817492 0.57594 1 0.5 0 1
236 1 42.0738 31.7319 0 121.34 31.7319 0 -254.577 508.59 140.705 91.1745 0.602052 -0.798457 1 0.5 0 1
237 1 67.4205 72.4812 0 67.4205 -6.78477 0 304.3 -18.0317 110.48 39.491 0.0498889 -0.998755 1 0.5 0 1
238 1 72.0025 19.8718 0 72.0025 99.1378 0 -34.1947 -786.086 11.3376 4.36324 -0.833635 0.552315 1 0.5 0 1
239 1 3.45837 40.6837 0 82.7244 40.6837 0 -123.483 -168.538 87.9179 -26.852 0.778345 -0.627837 1 0.5 0 1
240 1 72.6662 15.5397 0 72.6662 15.5397 0 -120.832 -987.57 89.543 101.486 0.806034 -0.591869 1 0.5 0 1
241 1 48.8536 36.0302 0 48.8536 36.0302 0 426.216 -117.298 -474.913 -90.5566 -0.591479 0.80632 1 0.5 0 1
242 1 1.10675 61.4826 0 80.3728 -17.7834 0 78.6682 -89.8225 13.8212 -187.641 0.94247 0.33429 1 0.5 0 1
243 1 15.499 73.472 0 -63.767 73.472 0 -718.099 878.794 -94.5945 32.4327 -0.945945 0.324327 1 0.5 0 1
244 1 61.6571 24.2487 0 61.6571 103.515 0 57.0602 -321.051 -34.0555 -86.7045 0.799347 -0.60087 1 0.5 0 1
245 1 56.4914 49.6774 0 56.4914 49.6774 0 324.147 -435.771 -179.381 4.23235 -0.778889 0.627162 1 0.5 0 1
246 1 49.657 39.8915 0 49.657 39.8915 0 81.5892 -94.9621 166.995 112.888 0.124873 -0.992173 1 0.5 0 1
247 1 67.2001 53.0842 0 67.2001 -26.1818 0 -454.647 288.565 12.0755 34.264 -0.242686 -0.970105 1 0.5 0 1
248 1 7.77269 9.85897 0 -71.4933 89.125 0 183.108 -308.18 22.2237 -97.4993 0.222237 -0.974993 1 0.5 0 1
249 1 4.1453 74.29 0 83.4113 -4.97605 0 -639.306 190.357 80.8547 -34.0225 0.409318 -0.912392 1 0.5 0 1
250 1 76.6844 76.9073 0 155.95 76.9073 0 180.841 409.286 -36.8891 -42.2643 0.883479 0.46847 1 0.5 0 1
251 1 15.8904 20.7814 0 15.8904 179.313 0 52.1022 -438.75 92.2782 -38.5322 0.922782 -0.385322 1 0.5 0 1
252 1 60.8832 20.3267 0 60.8832 99.5927 0 -213.886 291.037 86.0767 18.9972 0.925833 0.377933 1 0.5 0 1
253 1 21.6047 46.815 0 21.6047 46.815 0 -438.808 -654.813 101.2 -38.7045 -0.993828 -0.110934 1 0.5 0 1
254 1 48.3674 33.0774 0 48.3674 112.343 0 120.85 -416.363 -193.525 118.102 0.910635 0.413212 1 0.5 0 1
255 1 1.70695 32.9211 0 80.9729 112.187 0 -95.5038 -223.273 85.853 27.7881 -0.976679 0.214704 1 0.5 0 1
256 1 68.9022 41.1886 0 -10.3638 41.1886 0 -305.326 385.384 -119.715 -344.835 0.54641 -0.837518 1 0.5 0 1
257 1 7.82124 36.9057 0 7.82124 116.172 0 -200.171 57.2066 231.501 -30.7431 -0.327128 -0.94498 1 0.5 0 1
258 1 8.78388 25.3338 0 8.78388 -53.9322 0 -593.743 -500.752 -72.098 66.3726 -0.191312 0.981529 1 0.5 0 1
259 1 56.2994 64.2921 0 56.2994 64.2921 0 -488.876 604.22 37.8905 -71.3638 0.448175 -0.893946 1 0.5 0 1
260 1 66.8493 65.3171 0 146.115 -13.9489 0 -531.697 413.036 42.1014 -112.518 0.999577 0.0290679 1 0.5 0 1
261 1 50.439 66.787 0 -28.827 -12.479 0 -449.605 -317.688 99.9996 -0.277882 0.999996 -0.00277882 1 0.5 0 1
262 1 56.6271 58.3243 0 135.893 -20.9417 0 328.415 -687.189 -18.502 66.0126 0.878816 0.477161 1 0.5 0 1
263 1 31.3086 22.6447 0 -47.9574 -56.6213 0 -1023.48 -564.682 -89.2046 -45.1945 -0.892046 -0.451945 1 0.5 0 1
264 1 25.2859 1.73283 0 183.818 1.73283 0 872.077 216.957 72.4933 -68.8819 0.724933 -0.688819 1 0.5 0 1
265 1 53.5301 27.8527 0 53.5301 107.119 0 327.973 329.49 77.2753 -154.996 0.983135 0.182884 1 0.5 0 1
266 1 55.8662 51.281 0 55.8662 51.281 0 327.568 -293.655 23.266 64.4497 0.409145 0.912469 1 0.5 0 1
267 1 71.85 62.5998 0 -7.416 -16.6662 0 -593.581 344.171 277.112 -17.2354 -0.28996 -0.957039 1 0.5 0 1
268 1 66.3473 59.2346 0 66.3473 59.2346 0 -320.496 -562.837 82.3096 19.3126 0.875535 -0.483154 1 0.5 0 1
269 1 14.8381 51.1779 0 94.1041 51.1779 0 -688.664 637.895 -10.0334 135.178 -0.154366 0.988014 1 0.5 0 1
270 1 26.6048 58.5381 0 105.871 -20.7279 0 -67.9316 509.237 92.1335 68.6821 -0.0432557 0.999064 1 0.5 0 1
271 1 63.7102 15.557 0 63.7102 15.557 0 -67.2368 -29.6698 45.288 8.92479 0.999567 -0.0294109 1 0.5 0 1
272 1 51.7011 37.0324 0 51.7011 37.0324 0 708.982 183.48 -381.978 -126.775 -0.108865 -0.994057 1 0.5 0 1
273 1 59.8899 49.0921 0 59.8899 49.0921 0 95.7741 234.061 -446.854 -48.7313 0.973179 0.230051 1 0.5 0 1
274 1 29.9108 21.658 0 29.9108 21.658 0 -375.027 308.566 62.4468 -78.1051 0.624468 -0.781051 1 0.5 0 1
275 1 6.18177 59.8637 0 85.4478 -19.4023 0 -165.297 -499.753 61.655 58.9186 -0.775794 0.630987 1 0.5 0 1
276 1 58.2028 43.9315 0 58.2028 43.9315 0 -331.133 552.449 42.505 -271.244 0.173296 0.98487 1 0.5 0 1
277 1 24.8566 22.145 0 -54.4094 22.145 0 -1140.76 192 84.3761 50.4004 0.89328 0.449501 1 0.5 0 1
278 1 10.1618 31.3648 0 -69.1042 110.631 0 -445.167 321.514 218.782 118.765 -0.998275 0.0587046 1 0.5 0 1
279 1 33.8396 25.8278 0 113.106 -53.4382 0 -13.8339 332.919 -93.0556 -83.9351 0.14477 -0.989465 1 0.5 0 1
280 1 53.9229 5.68427 0 -25.3431 -73.5817 0 -194.11 249.702 -98.9386 -14.531 -0.989386 -0.14531 1 0.5 0 1
281 1 68.4336 55.3872 0 68.4336 55.3872 0 -359.174 -579.623 151.533 -19.5008 -1 -0.000873059 1 0.5 0 1
282 1 48.0397 46.4793 0 48.0397 -32.7867 0 12.3416 5.80125 30.534 85.2196 0.615764 -0.787931 1 0.5 0 1
283 1 69.6006 29.8682 0 -9.66541 109.134 0 353.694 -27.0251 -155.668 -133.554 -0.017388 0.999849 1 0.5 0 1
284 1 7.14563 26.897 0 7.14563 106.163 0 520.633 84.5157 -8.13448 -99.7936 0.768667 0.639649 1 0.5 0 1
285 1 65.9825 33.1654 0 65.9825 33.1654 0 104.397 486.232 -48.5993 -220.57 0.949472 -0.313851 1 0.5 0 1