ITEM: TIMESTEP
370000
ITEM: NUMBER OF ATOMS
4000
ITEM: BOX BOUNDS pp pp pp
0.0000000000000000e+00 7.9266000000000005e+01
0.0000000000000000e+00 7.9266000000000005e+01
-5.0000000000000000e-01 5.0000000000000000e-01
ITEM: ATOMS id type x y z xu yu zu vx vy fx fy mux muy mu radius omegaz mass
1 1 2.50794 64.6621 0 81.7739 64.6621 0 -393.285 53.1876 163.723 -155.838 -0.999128 0.0417473 1 0.5 0 1
2 1 61.4345 18.8765 0 61.4345 18.8765 0 390.322 854.991 91.1122 72.4783 0.867215 -0.497934 1 0.5 0 1
3 1 15.4763 35.7487 0 15.4763 -43.5173 0 378.536 329.286 -39.5974 88.0702 0.981548 -0.191216 1 0.5 0 1
4 1 2.09033 12.9076 0 2.09033 12.9076 0 -154.968 1008.66 -1.6003 -20.5313 -0.910977 0.412457 1 0.5 0 1
5 1 2.7409 32.1822 0 2.7409 32.1822 0 -616.2 -879.206 106.67 170.016 -0.993286 0.115681 1 0.5 0 1
6 1 70.013 30.3849 0 -9.25298 30.3849 0 -237.269 258.165 32.7863 -67.2361 0.177167 0.984181 1 0.5 0 1
7 1 66.8425 49.5483 0 66.8425 49.5483 0 137.385 419.001 1.80484 -19.511 0.315779 0.948833 1 0.5 0 1
8 1 16.0142 38.6839 0 16.0142 -40.5821 0 182.629 -199.868 -78.0114 -63.3344 -0.663069 -0.748558 1 0.5 0 1
9 1 68.1481 28.0012 0 68.1481 28.0012 0 -95.4197 11.8814 -138.676 -259.678 -0.30744 -0.951568 1 0.5 0 1
10 1 20.2695 55.6647 0 20.2695 55.6647 0 -67.9284 -960.818 -85.5348 -59.9173 -0.990564 -0.137053 1 0.5 0 1
11 1 76.931 8.88735 0 -81.601 8.88735 0 -156.977 -333.852 97.2182 -31.7208 -0.660628 0.750714 1 0.5 0 1
12 1 0.445115 23.4196 0 79.7111 102.686 0 798.23 315.633 33.2946 109.371 -0.615152 -0.788408 1 0.5 0 1
13 1 76.3303 68.9125 0 76.3303 -10.3535 0 -413.934 -29.0469 236.21 16.6788 -0.774903 0.63208 1 0.5 0 1
14 1 18.9942 43.2371 0 -139.538 43.2371 0 -319.557 98.3489 -66.0896 40.5392 -0.989321 -0.145754 1 0.5 0 1
15 1 10.5178 34.6448 0 10.5178 34.6448 0 1.69789 -152.265 -11.8732 -4.09285 -0.948161 -0.317792 1 0.5 0 1
16 1 15.3605 50.5723 0 -63.9055 -28.6937 0 -181.102 -40.8322 -37.2443 -58.5769 -0.993835 0.110866 1 0.5 0 1
17 1 40.4718 39.3491 0 119.738 118.615 0 -399.348 636.67 -50.9261 39.4173 0.998153 0.0607494 1 0.5 0 1
18 1 10.5032 12.346 0 10.5032 12.346 0 -96.6628 438.079 -76.0219 2.60148 -0.930486 -0.366327 1 0.5 0 1
19 1 4.27729 41.7873 0 4.27729 41.7873 0 6.57244 -77.6441 193.887 145.062 0.200737 0.979645 1 0.5 0 1
20 1 14.3214 57.5987 0 14.3214 57.5987 0 340.015 -62.972 1.07645 43.2469 0.955737 -0.294223 1 0.5 0 1
21 1 3.69483 28.8749 0 3.69483 28.8749 0 -256.92 101.318 89.5386 141.45 0.134537 0.990909 1 0.5 0 1
22 1 1.9056 22.1464 0 81.1716 22.1464 0 516.5 610.728 41.9004 -9.8081 -0.845661 0.53372 1 0.5 0 1
23 1 38.8901 45.2109 0 118.156 45.2109 0 -123.662 -292.837 38.637 -109.682 0.961625 -0.274366 1 0.5 0 1
24 1 65.8689 57.2237 0 65.8689 -22.0423 0 -1011.25 -347.077 168.756 111.51 0.99216 0.124974 1 0.5 0 1
25 1 46.7737 28.6013 0 -32.4923 -50.6647 0 1178.58 -131.147 3.48819 -6.34259 -0.0232232 -0.99973 1 0.5 0 1
26 1 51.8324 57.227 0 51.8324 -101.305 0 597.522 -85.7293 -171.886 136.947 0.668269 0.74392 1 0.5 0 1
27 1 74.3182 20.0849 0 -4.94784 99.3509 0 214.203 -341.828 -24.9355 -72.1394 -0.851057 -0.525073 1 0.5 0 1
28 1 50.9389 7.16982 0 50.9389 86.4358 0 12.181 -23.0527 -100.399 -8.88159 -0.875377 -0.48344 1 0.5 0 1
29 1 74.0211 38.6309 0 -5.24489 38.6309 0 403.898 -719.405 -23.5801 34.0095 -0.842622 -0.538505 1 0.5 0 1
30 1 66.6591 13.2566 0 66.6591 92.5226 0 -165.637 -21.184 25.2669 -2.00407 0.732945 0.680288 1 0.5 0 1
31 1 74.4277 27.1666 0 -4.83829 27.1666 0 -821.981 278.558 157.848 -28.8878 -0.90309 0.429451 1 0.5 0 1
32 1 3.11995 16.0942 0 3.11995 16.0942 0 -14.7176 -484.635 -210.128 98.8098 -0.0683247 0.997663 1 0.5 0 1
33 1 64.3624 58.5181 0 64.3624 -20.7479 0 220.186 -116.932 17.6698 208.318 -0.50669 -0.862129 1 0.5 0 1
34 1 5.95448 45.1161 0 85.2205 45.1161 0 1030.07 290.225 -45.905 -98.0549 0.539711 0.841851 1 0.5 0 1
35 1 42.4845 34.7233 0 -36.7815 34.7233 0 -414.443 -440.297 -20.3541 -32.577 0.988318 -0.152405 1 0.5 0 1
36 1 59.8307 57.9659 0 59.8307 -21.3001 0 246.396 -962.981 103.772 -68.6009 -0.291496 0.956572 1 0.5 0 1
37 1 69.6136 42.5033 0 69.6136 42.5033 0 -516.289 925.652 7.90864 -58.4513 -0.964966 0.262373 1 0.5 0 1
38 1 73.5448 12.0171 0 152.811 91.2831 0 -125.288 643.908 -30.0386 69.2755 0.859799 -0.510633 1 0.5 0 1
39 1 8.62876 23.1219 0 87.8948 -56.1441 0 -13.711 -200.528 -18.775 -172.58 -0.980388 0.197075 1 0.5 0 1
40 1 56.7157 18.0396 0 -22.5503 97.3056 0 458.688 317.458 -5.05974 -33.6832 0.244905 0.969547 1 0.5 0 1
41 1 68.4365 52.7144 0 68.4365 52.7144 0 -815.208 -398.422 191.743 47.3587 0.981879 -0.189511 1 0.5 0 1
42 1 74.4933 60.1507 0 -4.77267 60.1507 0 -516.053 -546.123 46.9439 -33.2472 0.706114 -0.708098 1 0.5 0 1
43 1 0.393398 16.2323 0 -78.8726 95.4983 0 -307.521 -115.277 -27.0722 -124.116 -0.961515 0.274754 1 0.5 0 1
44 1 65.3022 21.4478 0 65.3022 100.714 0 184.779 668.078 -137.676 -265.503 0.0960074 0.995381 1 0.5 0 1
45 1 7.46554 68.9447 0 7.46554 -89.5873 0 374.753 -921.882 78.6623 133.36 -0.603374 -0.797458 1 0.5 0 1
46 1 6.85635 41.7437 0 6.85635 41.7437 0 1002.09 153.201 -80.444 91.0601 -0.374766 0.927119 1 0.5 0 1
47 1 57.8362 60.8761 0 57.8362 -18.3899 0 32.2852 -620.321 -85.4257 207.873 -0.631521 -0.775358 1 0.5 0 1
48 1 11.7749 46.7259 0 11.7749 46.7259 0 -224.621 -15.7586 20.4816 15.5125 -0.505046 -0.863092 1 0.5 0 1
49 1 14.0498 8.50886 0 14.0498 87.7749 0 -549.763 -450.642 -59.4586 -80.4032 -0.594586 -0.804032 1 0.5 0 1
50 1 65.385 8.0551 0 -13.881 8.0551 0 280.245 -453.266 -46.0516 43.564 -0.853569 0.52098 1 0.5 0 1
51 1 68.9008 74.5826 0 -89.6312 -4.68337 0 457.36 -212.805 -55.9421 -7.16645 -0.920775 -0.390094 1 0.5 0 1
52 1 3.95104 33.5421 0 83.217 33.5421 0 452.205 -235.591 19.3411 -92.5281 -0.434458 0.900692 1 0.5 0 1
53 1 11.9883 55.0026 0 11.9883 134.269 0 87.6997 394.243 -4.71597 -136.919 -0.852422 -0.522854 1 0.5 0 1
54 1 52.4307 29.7203 0 52.4307 29.7203 0 -677.205 -226.742 70.3847 144.734 -0.889874 0.456206 1 0.5 0 1
55 1 18.2393 43.9575 0 97.5053 123.223 0 80.4072 656.047 133.82 33.2783 -0.99999 0.00448657 1 0.5 0 1
56 1 41.9376 38.0696 0 41.9376 38.0696 0 154.362 -46.2775 -58.2954 26.3651 0.843063 0.537815 1 0.5 0 1
57 1 12.6636 24.1931 0 12.6636 103.459 0 -233.947 -596.786 -9.47074 -98.2271 -0.649385 0.760459 1 0.5 0 1
58 1 67.3114 28.5844 0 -11.9546 28.5844 0 -47.1344 -615.262 164.446 201.892 -0.989204 0.146543 1 0.5 0 1
59 1 51.4859 33.9058 0 51.4859 33.9058 0 29.819 -245.083 -42.7573 9.08387 0.417921 -0.908484 1 0.5 0 1
60 1 55.8003 40.7695 0 55.8003 40.7695 0 206.762 191.729 115.547 -35.4625 0.996089 -0.0883506 1 0.5 0 1
61 1 58.4988 44.2313 0 58.4988 44.2313 0 222.858 62.5733 -84.881 -183.831 0.984743 0.174017 1 0.5 0 1
62 1 57.0781 20.0823 0 136.344 20.0823 0 332.911 1020.49 -2.19362 47.9156 0.98764 0.156738 1 0.5 0 1
63 1 12.2695 60.6842 0 -66.9965 -18.5818 0 -19.6752 -399.907 -130.709 -25.323 0.882554 0.470211 1 0.5 0 1
64 1 45.3627 26.2472 0 124.629 105.513 0 466.901 -180.634 -22.8535 -40.0121 -0.970924 0.239386 1 0.5 0 1
65 1 41.4692 29.5154 0 200.001 108.781 0 155.271 -476.416 -76.5182 38.7477 0.617045 0.786928 1 0.5 0 1
66 1 13.2061 45.2936 0 92.4721 124.56 0 67.3348 -205.102 -11.7119 105.378 0.899699 0.43651 1 0.5 0 1
67 1 53.5915 42.6992 0 53.5915 42.6992 0 -93.9944 117.743 14.1348 -50.0186 -0.913711 -0.406364 1 0.5 0 1
68 1 14.7889 41.1338 0 14.7889 41.1338 0 -20.9594 -442.154 27.7352 235.534 -0.441587 -0.897219 1 0.5 0 1
69 1 53.6009 20.8666 0 53.6009 20.8666 0 163.543 -293.762 13.1091 42.7235 0.978318 -0.207109 1 0.5 0 1
70 1 47.8245 37.1705 0 47.8245 116.437 0 231.63 38.6906 -106.074 -6.13046 0.974423 0.224721 1 0.5 0 1
71 1 44.835 73.5802 0 124.101 -5.68579 0 -553.107 195.456 90.3971 -42.7594 0.903971 -0.427594 1 0.5 0 1
72 1 4.40457 57.1052 0 4.40457 57.1052 0 -403.142 398.621 155.16 -22.6423 -0.997849 -0.0655566 1 0.5 0 1
73 1 0.0279783 12.3478 0 0.0279783 12.3478 0 805.741 27.6252 -31.013 -16.6023 -0.697875 0.71622 1 0.5 0 1
74 1 57.4511 22.1276 0 57.4511 101.394 0 649.781 -628.654 -85.3536 84.6615 0.945395 0.325926 1 0.5 0 1
75 1 75.6869 38.2927 0 -3.57908 38.2927 0 -455.107 -1145.83 11.5493 66.6156 0.369697 0.929152 1 0.5 0 1
76 1 47.3445 23.1167 0 -31.9215 23.1167 0 479.494 1281.9 -0.00631636 -66.4574 -0.896915 0.442204 1 0.5 0 1
77 1 78.2516 34.6291 0 -1.01441 34.6291 0 728.154 154.18 20.6225 5.07884 0.619619 0.784902 1 0.5 0 1
78 1 60.4319 17.4745 0 60.4319 96.7405 0 625.162 -336.312 -214.016 -35.7694 0.795175 -0.60638 1 0.5 0 1
79 1 45.4142 57.3769 0 -33.8518 57.3769 0 -317.486 411.348 1.34304 24.1782 0.290574 -0.956852 1 0.5 0 1
80 1 0.479489 26.9912 0 0.479489 -52.2748 0 260.75 360.976 82.0553 -49.7934 -0.346268 -0.938136 1 0.5 0 1
81 1 47.067 34.1839 0 126.333 34.1839 0 118.88 441.331 122.664 -63.3976 0.752213 -0.65892 1 0.5 0 1
82 1 0.957283 38.8833 0 0.957283 38.8833 0 919.394 620.714 -142.981 -71.4084 0.627623 0.778517 1 0.5 0 1
83 1 41.476 39.6704 0 120.742 118.936 0 -223.997 -11.1129 -12.5106 -35.2671 0.382078 0.92413 1 0.5 0 1
84 1 76.3138 44.8319 0 -2.9522 44.8319 0 59.4984 -609.275 90.5425 -19.1156 -0.773426 -0.633887 1 0.5 0 1
85 1 38.0464 20.2193 0 38.0464 20.2193 0 502.886 359.138 -99.9975 -0.711324 -0.999975 -0.00711324 1 0.5 0 1
86 1 10.8679 40.2115 0 10.8679 40.2115 0 -457.142 -226.471 103.986 32.364 -0.959247 0.282569 1 0.5 0 1
87 1 11.3581 42.1214 0 11.3581 42.1214 0 -242.575 -371.372 254.825 -38.9514 -0.886405 -0.46291 1 0.5 0 1
88 1 16.5161 62.7846 0 16.5161 -16.4814 0 368.875 635.694 119.561 8.22403 -0.811249 0.5847 1 0.5 0 1
89 1 22.598 57.2096 0 22.598 -22.0564 0 583.855 19.3514 74.7875 22.3284 -0.420471 -0.907306 1 0.5 0 1
90 1 4.23851 38.1159 0 4.23851 38.1159 0 -162.785 655.473 52.3166 -216.246 -0.924584 0.380978 1 0.5 0 1
91 1 15.4824 58.8878 0 15.4824 -20.3782 0 -728.074 283.645 72.3497 96.5684 -0.93633 -0.351121 1 0.5 0 1
92 1 3.0412 54.8273 0 3.0412 54.8273 0 1188.28 90.6399 -190.181 82.6694 0.718939 0.695073 1 0.5 0 1
93 1 1.5957 45.4542 0 1.5957 45.4542 0 -646.166 157.94 255.779 -124.642 -0.651384 0.758748 1 0.5 0 1
94 1 69.9752 36.4583 0 69.9752 36.4583 0 443.786 7.98586 133.79 71.3723 0.958641 -0.284616 1 0.5 0 1
95 1 66.626 48.5589 0 66.626 48.5589 0 400.606 553.599 -20.3838 -53.6322 -0.984254 -0.176758 1 0.5 0 1
96 1 53.3457 41.7361 0 53.3457 41.7361 0 464.863 533.214 48.8023 -52.4353 -0.522595 -0.852581 1 0.5 0 1
97 1 48.0872 19.7309 0 48.0872 -59.5351 0 76.3846 -46.9355 -36.3538 -34.5923 0.649472 -0.760386 1 0.5 0 1
98 1 19.7123 50.0178 0 19.7123 50.0178 0 364.749 -584.897 -40.6348 -83.7188 -0.81427 -0.580486 1 0.5 0 1
99 1 44.8155 38.9486 0 44.8155 -40.3174 0 671.593 257.214 -7.55629 86.4724 0.607639 0.794214 1 0.5 0 1
100 1 72.5313 43.4927 0 72.5313 43.4927 0 -167.052 165.141 -109.154 50.3315 0.960828 -0.277144 1 0.5 0 1
101 1 49.1767 46.68 0 49.1767 -32.586 0 -569.159 81.8272 136.033 252.61 -0.985322 0.170707 1 0.5 0 1
102 1 78.5039 42.8542 0 -0.762148 42.8542 0 430.329 659.984 -107.991 15.5746 -0.965962 -0.258683 1 0.5 0 1
103 1 57.373 71.1721 0 -101.159 150.438 0 -100.348 -358.964 -57.7383 -6.30554 -0.978946 -0.204121 1 0.5 0 1
104 1 52.8789 43.3487 0 52.8789 122.615 0 -723.562 245.779 -56.2507 26.3001 0.929146 0.369714 1 0.5 0 1
105 1 15.9971 26.2303 0 15.9971 26.2303 0 -690.809 -766.045 -8.73677 85.1125 0.0448619 0.998993 1 0.5 0 1
106 1 39.7124 53.098 0 39.7124 -26.168 0 -163.217 -71.3507 -36.7423 -6.92597 0.915503 -0.40231 1 0.5 0 1
107 1 61.2136 37.1321 0 61.2136 37.1321 0 -335.626 705.702 -6.63239 -372.568 0.491574 -0.870836 1 0.5 0 1
108 1 78.7546 36.5907 0 -0.511428 115.857 0 184.924 -124.726 -226.247 144.203 0.620591 -0.784135 1 0.5 0 1
109 1 11.6958 23.9298 0 -67.5702 103.196 0 -25.7838 901.539 12.4476 -76.4973 0.555599 0.83145 1 0.5 0 1
110 1 49.9374 30.6694 0 49.9374 30.6694 0 -174.477 159.533 -131.75 -5.54595 -0.602207 0.79834 1 0.5 0 1
111 1 74.104 15.6205 0 74.104 94.8865 0 -342.987 938.545 21.2223 -19.4066 -0.0145486 0.999894 1 0.5 0 1
112 1 10.6196 49.1446 0 10.6196 49.1446 0 255.031 -50.7315 35.3465 -130.09 0.981992 0.188923 1 0.5 0 1
113 1 13.2498 27.1995 0 -66.0162 106.465 0 339.125 -322.082 14.581 9.39225 0.0343835 0.999409 1 0.5 0 1
114 1 53.7794 54.1752 0 53.7794 54.1752 0 -162.409 484.941 58.5725 24.0851 0.991163 -0.132647 1 0.5 0 1
115 1 39.685 44.5132 0 39.685 -34.7528 0 162.909 55.707 -125.491 140.727 0.287605 -0.957749 1 0.5 0 1
116 1 61.2453 4.35969 0 61.2453 -74.9063 0 -381.259 32.9621 -9.01575 -7.68907 0.318763 -0.947834 1 0.5 0 1
117 1 62.9201 68.058 0 62.9201 -11.208 0 -214.486 175.95 -82.2539 -176.499 0.932426 -0.361362 1 0.5 0 1
118 1 54.0999 41.097 0 54.0999 41.097 0 23.1177 280.341 145.685 -62.3216 0.83699 -0.547218 1 0.5 0 1
119 1 71.7652 3.16044 0 151.031 3.16044 0 412.049 96.8446 99.3858 -11.0661 0.993858 -0.110661 1 0.5 0 1
120 1 45.7271 51.1013 0 124.993 -28.1647 0 996.122 812.622 93.9172 3.41376 -0.954635 0.297779 1 0.5 0 1
121 1 42.8774 27.2204 0 -115.655 27.2204 0 245.44 92.9551 42.8577 -79.9579 0.993893 0.110351 1 0.5 0 1
122 1 22.2919 37.3913 0 22.2919 116.657 0 -363.876 -242.781 -4.63939 12.2655 -0.10281 0.994701 1 0.5 0 1
123 1 74.8341 31.7423 0 -4.43194 31.7423 0 -970.06 806.808 209.231 -95.0206 -0.95521 0.295928 1 0.5 0 1
124 1 28.1435 66.5505 0 -51.1225 -12.7155 0 83.3849 -489.754 -95.8154 -28.6255 -0.958154 -0.286255 1 0.5 0 1
125 1 65.5448 28.8477 0 65.5448 28.8477 0 199.73 -678.223 69.4084 24.988 -0.657089 -0.753813 1 0.5 0 1
126 1 8.85707 35.0401 0 88.1231 114.306 0 468.726 -269.921 -2.16065 76.6907 0.927845 -0.372967 1 0.5 0 1
127 1 56.9579 30.4674 0 56.9579 109.733 0 -306.192 35.4413 153.058 240.091 0.206048 0.978542 1 0.5 0 1
128 1 2.93452 25.9796 0 -76.3315 25.9796 0 388.228 -171.395 -63.0617 90.7247 -0.999734 0.0230465 1 0.5 0 1
129 1 67.5485 56.9004 0 67.5485 -22.3656 0 -308.62 696.512 19.0614 -123.377 -0.990098 -0.140376 1 0.5 0 1
130 1 73.6149 56.3329 0 73.6149 -22.9331 0 -1031.53 156.026 148.724 19.7683 -0.732208 -0.681082 1 0.5 0 1
131 1 1.40261 73.1986 0 1.40261 73.1986 0 445.152 490.097 -72.5584 51.7402 0.398015 -0.917379 1 0.5 0 1
132 1 59.0519 32.0476 0 -20.2141 111.314 0 -71.7422 140.885 196.203 39.8758 0.975344 -0.220688 1 0.5 0 1
133 1 17.7456 49.4559 0 17.7456 128.722 0 -334.423 -419.614 144.102 -22.1488 -0.999703 -0.024371 1 0.5 0 1
134 1 12.1184 37.8538 0 12.1184 37.8538 0 -384.352 163.92 20.6815 -167.163 -0.984961 -0.172778 1 0.5 0 1
135 1 15.4119 54.2876 0 15.4119 133.554 0 171.826 -287.186 -90.7609 209.961 0.0654035 0.997859 1 0.5 0 1
136 1 29.6688 44.3767 0 108.935 123.643 0 176.21 -370.218 12.8578 99.1699 0.128578 0.991699 1 0.5 0 1
137 1 39.3723 51.9956 0 118.638 51.9956 0 -330.918 764.007 53.1635 -13.0706 0.467195 -0.884154 1 0.5 0 1
138 1 47.7433 51.6439 0 -31.5227 -27.6221 0 -640.518 -207.986 76.5022 85.4241 0.847752 0.530392 1 0.5 0 1
139 1 43.8228 42.3036 0 43.8228 -36.9624 0 553.938 -336.573 -28.1607 22.6906 0.832861 -0.553483 1 0.5 0 1
140 1 78.2835 12.0941 0 -0.982477 12.0941 0 611.129 183.384 24.2777 86.2531 -0.596699 0.802465 1 0.5 0 1
141 1 9.76381 57.0539 0 9.76381 57.0539 0 -948.576 -87.2669 -9.77737 -165.809 0.919725 -0.392562 1 0.5 0 1
142 1 21.5876 27.3287 0 -57.6784 106.595 0 -21.6172 122.908 -40.905 -94.5442 -0.899869 0.436161 1 0.5 0 1
143 1 10.769 35.6225 0 10.769 114.889 0 39.0694 -643.143 64.0039 -42.3965 0.7268 0.68685 1 0.5 0 1
144 1 27.156 34.0378 0 27.156 34.0378 0 -673.267 362.694 -85.4772 18.1079 -0.739129 0.673564 1 0.5 0 1
145 1 11.3136 67.0284 0 90.5796 67.0284 0 97.5605 -1130.04 51.8229 -36.0734 0.587647 -0.809118 1 0.5 0 1
146 1 59.9843 62.4819 0 59.9843 -16.7841 0 -830.143 258.824 241.956 -132.695 0.807795 -0.589463 1 0.5 0 1
147 1 78.9431 69.1708 0 78.9431 -10.0952 0 23.4329 -583.832 -33.6188 95.2795 -0.94013 0.340817 1 0.5 0 1
148 1 51.0578 58.0024 0 130.324 58.0024 0 -898.517 725.214 251.15 -139.286 -0.998699 0.050992 1 0.5 0 1
149 1 71.315 31.6078 0 71.315 110.874 0 -159.68 75.7547 22.2829 -49.4401 -0.469411 0.88298 1 0.5 0 1
150 1 66.3224 36.1855 0 -12.9436 36.1855 0 -613.367 -49.3357 135.306 138.62 0.782169 0.623066 1 0.5 0 1
151 1 3.46995 56.7715 0 82.7359 -22.4945 0 245.998 -925.393 -61.3543 -28.6086 0.179344 -0.983786 1 0.5 0 1
152 1 63.2665 65.4065 0 63.2665 65.4065 0 -185.204 390.282 121.761 -118.086 0.348127 -0.937447 1 0.5 0 1
153 1 76.2905 59.9208 0 76.2905 59.9208 0 516.102 -146.177 36.9112 69.2823 0.736395 -0.676552 1 0.5 0 1
154 1 2.56529 49.3541 0 2.56529 49.3541 0 215.32 -875.633 20.9892 232.971 0.635052 0.77247 1 0.5 0 1
155 1 69.7298 66.6434 0 -88.8022 -12.6226 0 631.602 163.366 -41.6619 -137.786 0.961325 -0.275415 1 0.5 0 1
156 1 73.5775 48.2786 0 73.5775 48.2786 0 453.283 -661.139 161.029 259.697 -0.646313 -0.763072 1 0.5 0 1
157 1 5.64935 29.5209 0 5.64935 29.5209 0 -1340.81 782.636 220.549 -36.9451 0.584717 -0.811237 1 0.5 0 1
158 1 67.0656 39.0094 0 -12.2004 39.0094 0 -301.24 533.763 5.35186 47.8044 0.725414 -0.688313 1 0.5 0 1
159 1 1.44404 10.8033 0 1.44404 90.0693 0 -97.7701 -165.064 -7.98516 32.2816 -0.321362 0.946956 1 0.5 0 1
160 1 37.6113 4.74816 0 37.6113 4.74816 0 126.73 -254.891 68.2034 76.8624 0.772772 0.634684 1 0.5 0 1
161 1 44.5272 26.8346 0 44.5272 -52.4314 0 -223.55 972.154 15.9655 -130.288 -0.396074 -0.918219 1 0.5 0 1
162 1 5.98613 52.1903 0 5.98613 52.1903 0 151.648 -68.049 -31.1834 -40.4707 0.409956 -0.912105 1 0.5 0 1
163 1 63.3374 49.2423 0 63.3374 49.2423 0 -179.864 -266.203 -96.946 98.2121 0.593468 0.804857 1 0.5 0 1
164 1 57.536 63.4737 0 57.536 -15.7923 0 -502.581 -74.8208 110.2 236.281 0.335033 -0.942206 1 0.5 0 1
165 1 36.0355 43.8803 0 36.0355 43.8803 0 69.5233 -54.261 -69.9599 45.336 -0.0665149 0.997785 1 0.5 0 1
166 1 10.2775 44.5368 0 10.2775 44.5368 0 -1063.55 266.379 -129.511 -0.516135 -0.105865 0.994381 1 0.5 0 1
167 1 64.7929 29.4982 0 64.7929 29.4982 0 503.008 138.598 59.1103 -191.282 0.986017 -0.166646 1 0.5 0 1
168 1 11.5572 2.0783 0 -67.7088 81.3443 0 -129.543 -87.644 27.2568 -96.2137 0.272568 -0.962137 1 0.5 0 1
169 1 20.0938 58.305 0 -59.1722 137.571 0 -150.814 -96.9447 -91.9226 37.6421 -0.95162 0.307276 1 0.5 0 1
170 1 16.3726 54.5856 0 95.6386 133.852 0 -17.3286 476.185 -34.2488 59.0109 0.95849 -0.285125 1 0.5 0 1
171 1 60.1667 68.1125 0 139.433 -11.1535 0 -393.653 -235.192 23.0999 88.0247 0.858185 -0.513341 1 0.5 0 1
172 1 8.07988 57.4168 0 8.07988 -21.8492 0 25.2414 415.986 -71.6376 115.717 0.981287 -0.192552 1 0.5 0 1
173 1 51.9568 17.5481 0 51.9568 -61.7179 0 372.201 -1033.9 -22.2615 -37.526 0.570866 0.821043 1 0.5 0 1
174 1 9.37913 51.4904 0 9.37913 51.4904 0 30.4751 152.704 -79.3386 -40.1418 -0.716378 0.697712 1 0.5 0 1
175 1 53.6187 62.3334 0 -25.6473 -16.9326 0 83.2379 501.207 -41.6697 225.772 0.958843 -0.283938 1 0.5 0 1
176 1 10.8496 50.1366 0 10.8496 50.1366 0 221.963 498.027 80.3164 82.2788 0.593061 0.805157 1 0.5 0 1
177 1 2.27583 70.6283 0 2.27583 70.6283 0 344.408 -540.609 196.523 37.7576 -0.999973 -0.00731416 1 0.5 0 1
178 1 56.6253 28.5158 0 -22.6407 107.782 0 391.61 54.3885 -24.4063 -51.7038 -0.939596 0.342285 1 0.5 0 1
179 1 4.0034 55.1469 0 4.0034 -24.1191 0 672.55 828.429 115.883 -124.203 0.824759 -0.565485 1 0.5 0 1
180 1 73.7659 41.2263 0 73.7659 41.2263 0 -182.124 -288.875 -72.2077 105.801 -0.983211 -0.182471 1 0.5 0 1
181 1 67.5627 15.2243 0 67.5627 15.2243 0 7.62062 -372.466 -117.807 -140.954 0.992324 -0.123669 1 0.5 0 1
182 1 12.3698 67.0464 0 -66.8962 67.0464 0 315.112 316.935 45.332 81.2778 -0.969106 0.246645 1 0.5 0 1
183 1 58.7105 56.6689 0 58.7105 -22.5971 0 -362.088 451.304 -5.30243 -38.4941 -0.342519 -0.939511 1 0.5 0 1
184 1 63.368 42.1887 0 63.368 42.1887 0 -116.43 757.945 -198.39 63.6649 -0.57373 -0.819045 1 0.5 0 1
185 1 54.1997 17.2502 0 -25.0663 17.2502 0 503.034 240.75 10.4007 35.5889 -0.289864 0.957068 1 0.5 0 1
186 1 25.4725 20.877 0 -53.7935 100.143 0 -601.73 645.099 -79.6075 60.5198 -0.796075 0.605198 1 0.5 0 1
187 1 55.1234 34.3897 0 -24.1426 113.656 0 -289.924 457.592 -92.5988 -102.016 -0.252775 0.967525 1 0.5 0 1
188 1 64.7135 15.7089 0 143.98 94.9749 0 312.395 157.162 8.0002 -53.6714 -0.21691 0.976191 1 0.5 0 1
189 1 67.861 74.446 0 -11.405 74.446 0 168.482 -753.109 -116.278 62.3903 -0.879791 -0.475361 1 0.5 0 1
190 1 20.6835 54.0178 0 -58.5825 54.0178 0 59.497 222.579 95.0102 -296.21 -0.584999 0.811034 1 0.5 0 1
191 1 67.0971 14.1994 0 146.363 14.1994 0 -290.011 133.097 -12.2364 -22.6129 -0.661168 -0.750238 1 0.5 0 1
192 1 58.5153 37.2298 0 58.5153 37.2298 0 -661.348 -278.819 -69.8876 4.29015 0.0492071 0.998789 1 0.5 0 1
193 1 76.3868 14.4354 0 -2.87918 93.7014 0 517.293 -286.277 -99.36 3.89566 -0.811453 0.584418 1 0.5 0 1
194 1 18.8174 30.8245 0 18.8174 -48.4415 0 -221.944 -692.496 -70.0283 -71.3865 -0.700283 -0.713865 1 0.5 0 1
195 1 53.3702 30.0815 0 53.3702 30.0815 0 1035.01 411.75 -31.3721 30.2571 -0.818513 0.574488 1 0.5 0 1
196 1 58.4665 40.7104 0 58.4665 40.7104 0 22.1898 384.067 101.612 107.215 -0.308962 -0.951074 1 0.5 0 1
197 1 71.0371 60.7603 0 -8.22888 60.7603 0 -762.036 -104.673 -10.0054 88.792 0.678024 0.735039 1 0.5 0 1
198 1 73.6725 44.8 0 73.6725 44.8 0 755.826 -311.199 121.831 44.5182 -0.843745 0.536745 1 0.5 0 1
199 1 66.5723 68.329 0 -12.6937 -10.937 0 -621.655 -210.014 76.7491 222.827 0.534923 -0.844901 1 0.5 0 1
200 1 2.37419 16.8134 0 81.6402 96.0794 0 -235.773 240.075 112.093 -122.482 0.104133 0.994563 1 0.5 0 1
201 1 75.3263 2.62605 0 -3.93965 81.892 0 -234.186 489.213 -40.4429 90.9926 -0.594715 0.803936 1 0.5 0 1
202 1 56.4879 58.6057 0 -22.7781 -20.6603 0 276.049 137.529 194.605 86.7716 0.385969 -0.922512 1 0.5 0 1
203 1 20.2014 36.2314 0 -59.0646 115.497 0 328.123 -79.066 38.9694 103.239 -0.926433 0.37646 1 0.5 0 1
204 1 64.4927 63.0651 0 64.4927 -16.2009 0 163.576 22.1855 -15.702 85.3724 -0.41935 -0.907824 1 0.5 0 1
205 1 47.1097 19.2989 0 47.1097 98.5649 0 -17.6162 1332.89 24.4368 1.88852 0.998965 0.0454768 1 0.5 0 1
206 1 2.94869 58.4638 0 2.94869 -20.8022 0 169.799 -45.9313 -122.198 -169.673 -0.629593 0.776925 1 0.5 0 1
207 1 59.2642 63.1255 0 59.2642 63.1255 0 425.714 -303.309 -108.233 198.024 0.684782 -0.728748 1 0.5 0 1
208 1 9.03427 32.4047 0 9.03427 32.4047 0 -321.795 -408.176 236.869 47.5392 -0.630239 0.776401 1 0.5 0 1
209 1 52.8588 27.143 0 52.8588 106.409 0 -448.056 -111.824 34.1058 -131.715 0.994915 -0.100715 1 0.5 0 1
210 1 65.9462 61.7576 0 -13.3198 61.7576 0 443.419 -255.566 131.008 134.652 -0.631253 0.775577 1 0.5 0 1
211 1 60.6902 42.2396 0 60.6902 42.2396 0 -247.811 -235.621 -25.933 142.352 0.986149 0.165863 1 0.5 0 1
212 1 21.2615 36.7634 0 179.794 36.7634 0 -215.075 -638.254 9.09108 -21.3694 -0.345497 0.93842 1 0.5 0 1
213 1 69.2791 64.6787 0 69.2791 64.6787 0 101.589 -1201.6 -246.511 -112.038 -0.477081 0.878859 1 0.5 0 1
214 1 19.7458 61.0246 0 19.7458 61.0246 0 223.765 -754.554 29.503 42.0076 -0.0106905 -0.999943 1 0.5 0 1
215 1 54.9631 59.949 0 54.9631 -19.317 0 -164.858 -750.99 105.252 -39.7699 0.684485 -0.729027 1 0.5 0 1
216 1 14.6816 47.5585 0 14.6816 126.825 0 388.341 239.83 -193.008 135.796 0.218871 0.975754 1 0.5 0 1
217 1 73.4636 7.57826 0 152.73 86.8443 0 -254.078 18.6203 -40.1279 -54.2698 0.84755 0.530715 1 0.5 0 1
218 1 46.039 48.4847 0 46.039 48.4847 0 -589.459 835.702 50.8787 -94.0454 -0.640578 -0.767893 1 0.5 0 1
219 1 53.1061 44.3041 0 53.1061 44.3041 0 -555.965 427.497 107.17 77.8931 -0.999776 -0.0211871 1 0.5 0 1
220 1 61.9339 67.7803 0 61.9339 -90.7517 0 -1082.73 37.9931 126.034 81.5976 0.802569 0.59656 1 0.5 0 1
221 1 49.1856 22.1715 0 -30.0804 180.704 0 -191.737 212.015 -15.967 -94.1388 0.451476 0.892283 1 0.5 0 1
222 1 42.9701 33.0015 0 42.9701 33.0015 0 476.72 -114.911 -26.7614 19.6825 0.967706 0.252083 1 0.5 0 1
223 1 71.8962 37.0203 0 -7.36985 37.0203 0 939.707 -191.156 -198.369 100.675 -0.0665648 -0.997782 1 0.5 0 1
224 1 75.7919 61.4756 0 -3.47406 61.4756 0 221.761 677.278 -270.34 81.0207 0.118863 -0.992911 1 0.5 0 1
225 1 13.0629 26.181 0 92.3289 -53.085 0 -710.884 -314.079 58.1885 5.68961 -0.961218 -0.275791 1 0.5 0 1
226 1 49.8925 9.20945 0 -29.3735 9.20945 0 389.09 274.632 -86.5537 -50.0846 -0.865537 -0.500846 1 0.5 0 1
227 1 1.40669 37.2042 0 80.6727 37.2042 0 260.718 -102.426 -127.107 -117.262 -0.552754 -0.833344 1 0.5 0 1
228 1 13.2083 64.6198 0 -66.0577 -14.6462 0 -296.069 56.9685 -59.7637 -69.2623 -0.45562 -0.890175 1 0.5 0 1
229 1 51.1669 40.1069 0 51.1669 40.1069 0 1378.77 -289.895 -54.3319 39.0694 -0.695183 -0.718833 1 0.5 0 1
230 1 51.6302 38.5138 0 51.6302 117.78 0 112.722 -558.774 72.2989 44.1454 -0.70756 0.706654 1 0.5 0 1
231 1 4.92833 23.0029 0 4.92833 102.269 0 616.32 -728.556 -189.288 2.12882 -0.588184 0.808727 1 0.5 0 1
232 1 47.7594 24.3953 0 47.7594 -54.8707 0 568.712 367.659 321.592 94.8903 0.235402 0.971898 1 0.5 0 1
233 1 6.92262 45.4008 0 6.92262 45.4008 0 -415.586 555.827 207.158 110.346 -0.652895 0.757448 1 0.5 0 1
234 1 61.885 73.3983 0 61.885 -5.86769 0 1082.2 196.401 -60.5926 -51.9908 0.985566 0.169295 1 0.5 0 1
235 1 25.5178 53.823 0 25.5178 133.089 0 -753.217 -32.4027 -56.8559 82.2643 -0.568559 0.822643 1 0.5 0 1
236 1 54.0853 64.3697 0 133.351 -14.8963 0 -1022.71 -763.925 -18.6266 -49.7979 0.887545 -0.46072 1 0.5 0 1
237 1 69.6177 70.3426 0 69.6177 -8.92339 0 -380.284 930.337 114.457 -177.83 0.786324 -0.617814 1 0.5 0 1
238 1 69.5832 22.25 0 69.5832 101.516 0 -424.183 -53.0266 50.9079 -44.4222 0.883863 0.467746 1 0.5 0 1
239 1 3.58456 42.4763 0 82.8506 42.4763 0 150.695 712.381 18.4786 -47.7599 0.997487 -0.0708432 1 0.5 0 1
240 1 72.1741 18.492 0 72.1741 18.492 0 -1166.65 221.739 -116.641 12.7665 0.676846 -0.736125 1 0.5 0 1
241 1 47.5591 36.1176 0 47.5591 36.1176 0 -807.317 461.576 115.266 30.6327 -0.521218 -0.853424 1 0.5 0 1
242 1 3.11138 63.061 0 82.3774 -16.205 0 -672.464 705.429 61.0667 152.685 0.74644 0.665452 1 0.5 0 1
243 1 69.8271 75.1255 0 -88.7049 75.1255 0 -958.608 534.516 -60.5106 8.75411 -0.990393 -0.138283 1 0.5 0 1
244 1 60.5535 25.1938 0 60.5535 104.46 0 -42.075 1004.05 -240.755 -171.62 0.995909 -0.0903597 1 0.5 0 1
245 1 56.4671 50.61 0 56.4671 50.61 0 -156.9 263.174 136.568 -120.207 -0.288114 -0.957596 1 0.5 0 1
246 1 48.7851 41.1682 0 48.7851 41.1682 0 67.0842 89.9431 -18.6743 109.779 -0.183178 -0.98308 1 0.5 0 1
247 1 66.977 54.0251 0 66.977 -25.2409 0 749.08 -73.5886 -18.9784 -166.63 0.669565 -0.742754 1 0.5 0 1
248 1 30.097 29.8567 0 -49.169 29.8567 0 991.976 44.1434 -4.39702 -99.9033 -0.0439702 -0.999033 1 0.5 0 1
249 1 38.1819 51.4146 0 117.448 -27.8514 0 253.313 273.468 -10.0222 -120.233 0.620095 -0.784527 1 0.5 0 1
250 1 52.854 67.5045 0 211.386 67.5045 0 919.537 -253.433 -8.31765 0.00196039 0.729576 -0.683899 1 0.5 0 1
251 1 63.1079 13.509 0 63.1079 172.041 0 84.493 49.9165 -89.9044 -29.1661 0.428729 0.903433 1 0.5 0 1
252 1 60.8814 21.5768 0 60.8814 100.843 0 368.362 99.382 131.299 48.2054 -0.943972 0.330027 1 0.5 0 1
253 1 16.8174 49.1491 0 16.8174 49.1491 0 -388.733 29.0223 -183.9 -4.27666 -0.925369 -0.379068 1 0.5 0 1
254 1 46.8642 33.1968 0 46.8642 112.463 0 39.4827 -122.436 -39.2183 101.136 0.612812 -0.790229 1 0.5 0 1
255 1 1.58212 34.5913 0 80.8481 113.857 0 750.321 232.394 -91.3108 -122.943 0.580767 0.81407 1 0.5 0 1
256 1 68.6384 42.1766 0 -10.6276 42.1766 0 -773.596 22.1032 182.494 189.48 -0.961054 -0.276362 1 0.5 0 1
257 1 7.77997 38.3762 0 7.77997 117.642 0 -543.495 204.492 130.591 56.7648 -0.999686 0.0250445 1 0.5 0 1
258 1 7.65269 26.4866 0 7.65269 -52.7794 0 -683.54 152.03 -149.2 12.3597 0.851652 0.524107 1 0.5 0 1
259 1 40.2954 54.6039 0 40.2954 54.6039 0 -1337.67 -15.1921 -77.3525 -71.2355 -0.162907 -0.986641 1 0.5 0 1
260 1 70.1549 68.6605 0 149.421 -10.6055 0 -58.3236 -268.231 0.767415 -76.0796 0.989084 0.147354 1 0.5 0 1
261 1 7.18489 14.0825 0 7.18489 14.0825 0 -336.51 320.168 12.6757 97.6865 -0.133723 0.991019 1 0.5 0 1
262 1 56.665 59.6011 0 135.931 -19.6649 0 -1175.08 91.875 34.4712 -109.444 0.54061 -0.841273 1 0.5 0 1
263 1 77.3632 74.4352 0 -81.1688 -84.0968 0 367.997 7.10175 -4.5122 63.0592 0.0137248 -0.999906 1 0.5 0 1
264 1 19.4792 41.5266 0 178.011 -37.7394 0 -330.924 241.052 -45.9502 -27.2571 -0.958752 -0.284244 1 0.5 0 1
265 1 52.2755 28.7514 0 52.2755 108.017 0 687.346 126.261 -6.25972 -127.696 0.885414 -0.464804 1 0.5 0 1
266 1 56.0093 52.2256 0 56.0093 52.2256 0 43.7646 211.086 145.554 -202.56 0.832554 0.553944 1 0.5 0 1
267 1 72.4529 62.9731 0 -6.81314 -16.2929 0 480.509 -482.666 34.3899 181.278 -0.984147 -0.177352 1 0.5 0 1
268 1 66.4733 60.1587 0 66.4733 60.1587 0 -578.589 261.623 126.205 -90.8483 0.605903 -0.795538 1 0.5 0 1
269 1 16.5556 55.6024 0 95.8216 55.6024 0 260.923 -281.991 -47.1324 -108.782 -0.992263 0.124154 1 0.5 0 1
270 1 54.7155 4.41637 0 54.7155 4.41637 0 -403.795 625.359 -99.3594 -11.3012 -0.993594 -0.113012 1 0.5 0 1
271 1 69.7714 12.6189 0 69.7714 12.6189 0 227.991 523.893 -100.89 -52.1967 0.806905 -0.590681 1 0.5 0 1
272 1 50.6723 38.1373 0 50.6723 38.1373 0 -428.792 -1132.53 -113.101 48.1441 0.326574 -0.945172 1 0.5 0 1
273 1 59.9263 49.8998 0 59.9263 49.8998 0 196.411 152.876 -28.6146 -125.39 0.453655 0.891177 1 0.5 0 1
274 1 69.7385 6.14772 0 69.7385 6.14772 0 -489.238 -263.119 43.112 -17.6641 0.999418 -0.0341096 1 0.5 0 1
275 1 7.17774 61.8227 0 86.4437 -17.4433 0 -116.788 -858.126 105.472 -102.627 0.0948181 0.995495 1 0.5 0 1
276 1 57.7285 44.883 0 57.7285 44.883 0 -405.958 -143.98 190.515 -4.27195 -0.668477 0.743732 1 0.5 0 1
277 1 69.1987 7.1137 0 -10.0673 7.1137 0 -679.181 90.6818 25.4495 -82.9797 0.964061 -0.265682 1 0.5 0 1
278 1 10.0173 32.6842 0 -69.2487 111.95 0 282.095 238.805 35.8524 50.6562 -0.145178 -0.989405 1 0.5 0 1
279 1 23.0723 47.5595 0 102.338 -110.973 0 91.206 89.7705 -67.5912 -73.6982 -0.675912 -0.736982 1 0.5 0 1
280 1 2.57359 74.7321 0 -76.6924 -83.7999 0 -383.731 540.245 42.8864 -33.8856 -0.490349 -0.871526 1 0.5 0 1
281 1 68.3225 56.2475 0 68.3225 56.2475 0 505.196 -756.881 -85.3102 145.839 -0.840202 0.542273 1 0.5 0 1
282 1 47.5392 47.1091 0 47.5392 -32.1569 0 -150.386 -124.588 -281.756 15.3442 0.564224 -0.825622 1 0.5 0 1
283 1 68.7429 31.7592 0 -10.5231 111.025 0 375.35 -742.717 -257.234 327.137 -0.477458 -0.878655 1 0.5 0 1
284 1 6.41025 28.8437 0 6.41025 108.11 0 58.916 -410.133 -138.071 136.803 0.264578 0.964364 1 0.5 0 1