ITEM: TIMESTEP
30000
ITEM: NUMBER OF ATOMS
4000
ITEM: BOX BOUNDS pp pp pp
0.0000000000000000e+00 7.9266000000000005e+01
0.0000000000000000e+00 7.9266000000000005e+01
-5.0000000000000000e-01 5.0000000000000000e-01
ITEM: ATOMS id type x y z xu yu zu vx vy fx fy mux muy mu radius omegaz mass
1 1 42.3629 53.712 0 42.3629 53.712 0 220.12 -558.089 85.7228 51.4938 0.857228 0.514938 1 0.5 0 1
2 1 34.8855 14.0306 0 34.8855 14.0306 0 -432.446 420.519 -6.5979 -92.4869 0.0382135 -0.99927 1 0.5 0 1
3 1 38.149 28.4859 0 38.149 28.4859 0 -617.851 -154.603 -38.4402 -40.5406 -0.679669 -0.733519 1 0.5 0 1
4 1 62.6313 78.9353 0 62.6313 78.9353 0 279.459 622.033 -64.2092 75.2203 -0.696136 0.71791 1 0.5 0 1
5 1 51.4925 42.1851 0 51.4925 42.1851 0 15.0288 647.188 -72.2621 55.9864 -0.754931 -0.655804 1 0.5 0 1
6 1 57.0632 22.8275 0 57.0632 22.8275 0 377.102 307.445 -22.7065 45.12 -0.430875 -0.902411 1 0.5 0 1
7 1 59.3724 40.4805 0 59.3724 40.4805 0 793.271 87.7159 64.3821 -28.8776 0.940729 0.339158 1 0.5 0 1
8 1 34.8564 16.167 0 34.8564 16.167 0 691.281 -112.898 -61.3827 -40.3866 -0.368306 -0.929705 1 0.5 0 1
9 1 29.4398 35.8017 0 29.4398 35.8017 0 970.11 689.65 13.8733 77.753 0.92741 -0.374046 1 0.5 0 1
10 1 59.1865 71.0177 0 59.1865 71.0177 0 300.327 72.0872 23.5163 -54.9264 0.317212 -0.948355 1 0.5 0 1
11 1 7.30067 52.4982 0 7.30067 52.4982 0 -788.737 497.924 -26.0755 70.1038 -0.998496 0.05482 1 0.5 0 1
12 1 54.6288 50.5548 0 54.6288 50.5548 0 475.809 -250.087 -33.6452 52.9659 -0.396081 0.918216 1 0.5 0 1
13 1 29.4846 63.2551 0 29.4846 63.2551 0 1011.77 24.8941 -120.027 -104.24 -0.519452 -0.8545 1 0.5 0 1
14 1 75.823 61.1127 0 -3.44298 61.1127 0 -16.8225 -542.175 -261.672 51.1277 -0.788347 -0.615231 1 0.5 0 1
15 1 58.0185 54.7194 0 58.0185 54.7194 0 -413.24 194.06 -107.204 -9.33963 -0.653875 0.756603 1 0.5 0 1
16 1 76.5378 13.9412 0 -2.72815 13.9412 0 -655.538 903.667 -50.0277 -69.9143 -0.944992 -0.327094 1 0.5 0 1
17 1 49.587 36.9243 0 49.587 36.9243 0 -37.9427 -340.527 -135.126 169.345 -0.727138 0.686492 1 0.5 0 1
18 1 42.9574 40.6544 0 42.9574 40.6544 0 209.302 67.5682 -157.189 44.9273 -0.456066 -0.889946 1 0.5 0 1
19 1 31.4673 62.1609 0 31.4673 62.1609 0 311.928 683.169 103.101 62.1521 -0.325029 -0.945704 1 0.5 0 1
20 1 16.6519 45.4031 0 16.6519 45.4031 0 -445.215 235.062 43.9488 145.278 0.411129 0.911577 1 0.5 0 1
21 1 57.249 72.4346 0 57.249 -6.83136 0 -265.585 -184.122 -113.311 -9.85119 -0.172156 -0.98507 1 0.5 0 1
22 1 29.907 32.8061 0 29.907 32.8061 0 -541.609 -150.603 183.903 -176.632 0.68148 0.731837 1 0.5 0 1
23 1 37.4321 27.6908 0 37.4321 27.6908 0 558.929 182.634 38.9045 -2.84198 -0.410788 -0.911731 1 0.5 0 1
24 1 56.1471 77.9003 0 56.1471 -1.36574 0 371.901 124.574 -89.1457 -31.8141 0.925617 -0.378461 1 0.5 0 1
25 1 16.5455 2.01468 0 16.5455 2.01468 0 -586.86 -95.7423 -59.2228 47.1823 -0.999369 -0.0355136 1 0.5 0 1
26 1 29.3092 2.60857 0 29.3092 2.60857 0 -18.9088 67.4022 -56.308 -3.61664 -0.0569081 -0.998379 1 0.5 0 1
27 1 53.6063 14.9588 0 53.6063 14.9588 0 33.8398 -230.189 -74.2994 58.8768 0.876422 0.481544 1 0.5 0 1
28 1 32.7134 34.4275 0 32.7134 34.4275 0 360.604 347.831 -50.3366 111.218 -0.214488 0.976727 1 0.5 0 1
29 1 78.4556 19.6649 0 -0.810407 19.6649 0 246.543 -690.434 -62.4259 -11.9976 -0.208919 0.977933 1 0.5 0 1
30 1 44.4811 10.4029 0 44.4811 89.6689 0 218.842 -42.1984 -46.973 17.3796 0.490505 0.871439 1 0.5 0 1
31 1 28.6563 60.3618 0 28.6563 60.3618 0 -239.031 198.456 78.3152 5.33816 0.5232 -0.85221 1 0.5 0 1
32 1 30.6233 23.1321 0 30.6233 23.1321 0 -79.6529 301.789 55.4857 82.9755 0.478909 0.877865 1 0.5 0 1
33 1 33.9278 67.3367 0 33.9278 -11.9293 0 -285.013 867.432 45.6133 -85.6654 0.371282 -0.92852 1 0.5 0 1
34 1 70.1027 36.7419 0 70.1027 36.7419 0 351.051 300.215 145.342 51.5227 0.593836 -0.804586 1 0.5 0 1
35 1 33.4239 77.9781 0 33.4239 77.9781 0 251.939 -369.27 -156.395 65.4829 -0.998374 0.0569974 1 0.5 0 1
36 1 38.0615 37.8096 0 38.0615 37.8096 0 486.25 210.1 22.1102 -22.0009 0.477657 -0.878546 1 0.5 0 1
37 1 61.7859 30.6651 0 61.7859 30.6651 0 392.333 240.92 23.0749 -34.6121 0.969719 -0.244222 1 0.5 0 1
38 1 12.1324 25.9907 0 91.3984 25.9907 0 -298.46 119.029 2.71871 33.2106 1 -0.000356053 1 0.5 0 1
39 1 20.606 20.9387 0 20.606 20.9387 0 428.767 -458.504 80.6117 17.0831 -0.6717 -0.740823 1 0.5 0 1
40 1 78.8484 77.552 0 -0.417597 -1.71401 0 -316.287 342.517 20.2582 192.76 -0.502162 -0.864773 1 0.5 0 1
41 1 55.9087 70.9277 0 55.9087 70.9277 0 605.91 -482.695 -12.9185 58.3206 0.884057 -0.46738 1 0.5 0 1
42 1 24.6135 70.9843 0 24.6135 70.9843 0 -176.388 -174.603 -66.7069 82.9364 -0.982174 -0.187976 1 0.5 0 1
43 1 15.9932 59.3606 0 15.9932 59.3606 0 -418.281 -539.53 -21.9446 91.7906 -0.708207 0.706005 1 0.5 0 1
44 1 72.1738 75.8038 0 72.1738 75.8038 0 204.024 -308.67 40.9445 41.286 -0.271884 0.96233 1 0.5 0 1
45 1 22.1625 64.2591 0 22.1625 64.2591 0 -540.214 79.9718 -99.9711 -2.40257 -0.999711 -0.0240257 1 0.5 0 1
46 1 33.1446 16.0052 0 33.1446 16.0052 0 515.243 -502.684 49.1851 122.793 -0.99683 0.0795601 1 0.5 0 1
47 1 11.3026 13.7987 0 11.3026 13.7987 0 -609.11 703.196 58.8037 -88.9956 -0.646983 -0.762504 1 0.5 0 1
48 1 63.4025 57.7597 0 63.4025 57.7597 0 -275.497 -760.056 -68.4419 36.7037 -0.956422 -0.291986 1 0.5 0 1
49 1 62.2962 77.4509 0 62.2962 77.4509 0 753.536 -27.5437 88.5974 75.8399 0.780621 0.625005 1 0.5 0 1
50 1 62.2456 33.6183 0 62.2456 33.6183 0 -417.868 -514.177 -27.3212 -41.9652 0.99268 -0.120777 1 0.5 0 1
51 1 18.7193 17.2037 0 18.7193 17.2037 0 -858.213 464.424 -99.2327 3.71979 -0.999918 -0.0127934 1 0.5 0 1
52 1 65.4973 14.2438 0 65.4973 14.2438 0 356.099 -840.549 98.8255 30.9053 0.649415 0.760434 1 0.5 0 1
53 1 49.8812 56.9073 0 49.8812 56.9073 0 854.844 265.008 64.8438 5.1237 0.630125 0.776494 1 0.5 0 1
54 1 28.3542 36.1893 0 28.3542 36.1893 0 25.1377 247.777 31.4232 -27.0874 0.910115 0.414356 1 0.5 0 1
55 1 77.5685 1.7406 0 77.5685 81.0066 0 166.915 -363.288 -19.9268 90.0769 0.517077 0.855939 1 0.5 0 1
56 1 35.3266 60.693 0 35.3266 60.693 0 -272.538 -489.36 -15.7265 -55.637 0.303836 -0.952724 1 0.5 0 1
57 1 16.0472 65.0592 0 16.0472 65.0592 0 285.627 -2.34994 20.7305 22.6721 0.637421 0.770516 1 0.5 0 1
58 1 27.1631 11.4081 0 27.1631 11.4081 0 -402.646 239.95 -99.613 8.7895 -0.99613 0.087895 1 0.5 0 1
59 1 48.6528 7.94483 0 48.6528 7.94483 0 297.01 -118.383 73.4633 42.7016 0.596949 0.802279 1 0.5 0 1
60 1 62.6725 48.0884 0 62.6725 48.0884 0 435.373 -109.366 -60.2483 110.815 -0.0694438 -0.997586 1 0.5 0 1
61 1 53.8801 53.5086 0 53.8801 53.5086 0 555.451 599.676 -18.6214 76.7218 0.00197951 -0.999998 1 0.5 0 1
62 1 43.2916 42.8604 0 43.2916 42.8604 0 6.28328 -199.049 19.1081 -73.8087 0.278894 -0.960322 1 0.5 0 1
63 1 72.2549 66.0424 0 -7.01108 66.0424 0 -359.115 -219.351 59.4238 34.0684 -0.798546 -0.601934 1 0.5 0 1
64 1 49.8938 32.4506 0 49.8938 32.4506 0 402.89 -764.889 -2.48917 54.224 0.63441 0.772997 1 0.5 0 1
65 1 64.7771 51.3069 0 64.7771 51.3069 0 427.102 101.999 10.3041 81.1246 0.504005 0.863701 1 0.5 0 1
66 1 43.3101 70.3019 0 43.3101 70.3019 0 -26.5351 -279.664 85.9523 83.3087 0.991126 -0.132929 1 0.5 0 1
67 1 28.1266 17.7814 0 28.1266 17.7814 0 -402.219 -340.573 78.5169 61.9281 0.785169 0.619281 1 0.5 0 1
68 1 19.533 35.0453 0 19.533 35.0453 0 -332.249 -499.749 11.7435 87.7802 0.524678 0.851301 1 0.5 0 1
69 1 53.8124 73.3324 0 53.8124 73.3324 0 -50.6444 101.219 -139.143 -0.0874475 -0.999543 0.0302177 1 0.5 0 1
70 1 23.9419 58.5258 0 23.9419 58.5258 0 561.949 97.6476 -59.4847 5.37057 -0.061607 0.9981 1 0.5 0 1
71 1 51.7225 45.3825 0 51.7225 45.3825 0 -701.559 -238.962 -26.2389 -93.9676 -0.997903 0.064726 1 0.5 0 1
72 1 22.4536 58.1382 0 22.4536 58.1382 0 -448.23 758.635 -2.49729 -10.997 -0.944356 0.328924 1 0.5 0 1
73 1 70.7657 38.1245 0 70.7657 38.1245 0 -359.592 -311.279 -21.525 9.09274 0.34123 -0.93998 1 0.5 0 1
74 1 55.3351 70.0332 0 55.3351 70.0332 0 -365.72 98.5224 41.0823 -14.7222 0.963209 0.268753 1 0.5 0 1
75 1 9.30948 38.2683 0 9.30948 38.2683 0 201.194 50.5066 -199.384 -75.3981 -0.947745 -0.319028 1 0.5 0 1
76 1 25.1927 22.1705 0 25.1927 22.1705 0 -225.991 -392.462 -44.8403 -31.4471 -0.969129 0.246553 1 0.5 0 1
77 1 12.6548 11.688 0 12.6548 11.688 0 -89.6507 -92.5797 5.51936 0.664846 -0.501471 0.865175 1 0.5 0 1
78 1 45.4922 48.5787 0 45.4922 48.5787 0 -81.9846 339.331 -24.9015 83.2357 -0.845057 -0.534676 1 0.5 0 1
79 1 59.3625 73.6747 0 59.3625 73.6747 0 -115.232 -271.677 91.9096 -124.574 -0.467995 0.883731 1 0.5 0 1
80 1 37.8058 69.4506 0 37.8058 -9.81539 0 -206.961 1061.92 47.8562 -12.3577 0.279337 -0.960193 1 0.5 0 1
81 1 2.36882 29.007 0 81.6348 29.007 0 -481.245 -162.514 -128.857 55.9507 0.752195 0.658941 1 0.5 0 1
82 1 22.1301 17.9342 0 22.1301 17.9342 0 264.84 -169.276 66.1853 -7.24865 0.666844 0.745197 1 0.5 0 1
83 1 35.9608 28.718 0 35.9608 28.718 0 -318.443 211.763 13.0469 57.3066 -0.625731 0.780039 1 0.5 0 1
84 1 4.53484 39.2413 0 4.53484 39.2413 0 0.96242 -127.666 -53.7965 52.837 -0.419158 0.907913 1 0.5 0 1
85 1 41.3958 15.5356 0 41.3958 15.5356 0 -413.828 57.2616 -47.6678 -102.82 -0.538545 -0.842597 1 0.5 0 1
86 1 44.2842 15.5535 0 44.2842 15.5535 0 -297.911 -587.671 -72.9035 14.8944 -0.467671 -0.883903 1 0.5 0 1
87 1 48.0114 31.8116 0 48.0114 31.8116 0 325.5 -272.318 -56.7097 80.2236 -0.43048 0.9026 1 0.5 0 1
88 1 62.0881 16.0428 0 62.0881 16.0428 0 97.0219 -443.412 52.2435 -40.7583 0.248934 0.96852 1 0.5 0 1
89 1 23.0088 46.9175 0 23.0088 46.9175 0 3.12284 -454.086 -52.2276 16.5105 -0.409054 0.91251 1 0.5 0 1
90 1 26.8537 59.4033 0 26.8537 59.4033 0 -897.847 362.588 8.26796 -94.3982 -0.196586 -0.980487 1 0.5 0 1
91 1 16.5037 4.94678 0 16.5037 4.94678 0 78.6385 -576.554 23.1108 -68.418 0.0864907 -0.996253 1 0.5 0 1
92 1 43.1136 46.1566 0 43.1136 46.1566 0 -645.319 535.596 118.089 66.0818 -0.417262 -0.908786 1 0.5 0 1
93 1 16.2044 42.9204 0 16.2044 42.9204 0 336.858 623.308 51.0432 91.269 0.0606588 0.998159 1 0.5 0 1
94 1 71.7603 15.4303 0 71.7603 15.4303 0 -438.765 -847.732 -50.6577 -20.2427 0.815625 0.57858 1 0.5 0 1
95 1 57.5205 42.3103 0 57.5205 42.3103 0 -244.773 -322.634 -1.5333 -17.9179 0.988194 0.15321 1 0.5 0 1
96 1 47.3059 35.3467 0 47.3059 35.3467 0 545.7 741.598 28.1923 1.37536 0.73966 -0.67298 1 0.5 0 1
97 1 64.0411 34.6344 0 64.0411 34.6344 0 212.186 -414.971 -72.3533 -20.9641 -0.557363 -0.830269 1 0.5 0 1
98 1 0.809961 70.8333 0 0.809961 70.8333 0 -155.542 61.7377 -74.1851 -75.3577 -0.735697 0.677311 1 0.5 0 1
99 1 73.1301 24.5976 0 73.1301 24.5976 0 -296.12 -165.564 2.24679 -37.2424 -0.894955 -0.446157 1 0.5 0 1
100 1 68.3044 31.5775 0 68.3044 31.5775 0 -347.81 423.002 68.1237 29.9141 0.842744 0.538315 1 0.5 0 1
101 1 44.3531 58.4037 0 44.3531 58.4037 0 244.401 -95.8246 11.2866 63.4821 0.643902 -0.765108 1 0.5 0 1
102 1 23.474 32.0863 0 23.474 32.0863 0 -100.99 217.626 -78.9445 1.76536 -0.919472 0.393157 1 0.5 0 1
103 1 37.309 52.7 0 37.309 52.7 0 176.058 235.709 -79.4262 57.5184 -0.816577 0.577237 1 0.5 0 1
104 1 32.6341 7.42488 0 32.6341 86.6909 0 -307.359 -487.528 26.5651 182.483 0.584526 0.811375 1 0.5 0 1
105 1 6.0609 10.8384 0 6.0609 10.8384 0 -640.122 322.971 -82.8764 -76.1861 -0.961855 -0.273559 1 0.5 0 1
106 1 53.4584 46.2907 0 53.4584 46.2907 0 926.151 -242.856 -100.705 12.3993 -0.995095 0.0989288 1 0.5 0 1
107 1 62.1559 19.2527 0 62.1559 19.2527 0 -966.744 -222.339 -21.4887 56.6812 -0.646368 0.763026 1 0.5 0 1
108 1 14.2249 1.98281 0 14.2249 81.2488 0 409.95 -236.067 138.348 34.5319 -0.105819 0.994385 1 0.5 0 1
109 1 14.752 46.493 0 14.752 46.493 0 -192.226 -685.795 -7.26811 -22.5521 -0.989502 0.144521 1 0.5 0 1
110 1 7.62847 39.2531 0 7.62847 39.2531 0 -171.275 227.343 -1.39557 58.8261 -0.999593 -0.0285369 1 0.5 0 1
111 1 10.6618 29.3031 0 10.6618 29.3031 0 -69.2972 -468.814 -51.1011 -26.6625 -0.362662 -0.931921 1 0.5 0 1
112 1 42.3538 59.1701 0 42.3538 59.1701 0 -271.041 -127.617 -51.6863 -66.5459 0.127484 -0.991841 1 0.5 0 1
113 1 66.1672 77.5371 0 -13.0988 -1.72892 0 362.47 -462 -103.69 12.1145 -0.356521 -0.934287 1 0.5 0 1
114 1 30.5358 31.961 0 30.5358 31.961 0 -345.874 -787.061 -24.4376 -6.11603 -0.854918 -0.518764 1 0.5 0 1
115 1 17.3906 8.73498 0 17.3906 8.73498 0 -459.195 -556.668 -48.6418 -64.3085 -0.505309 -0.862939 1 0.5 0 1
116 1 26.1439 27.7548 0 26.1439 27.7548 0 51.5289 -823.814 -23.2248 -30.0595 -0.640666 -0.767819 1 0.5 0 1
117 1 58.5536 42.469 0 58.5536 42.469 0 17.5812 655.841 118.134 23.317 0.964492 0.264112 1 0.5 0 1
118 1 54.9868 61.5762 0 54.9868 61.5762 0 105.034 508.48 121.262 -74.7931 0.736515 -0.676421 1 0.5 0 1
119 1 13.0883 14.1979 0 13.0883 14.1979 0 400.161 -7.53505 157.815 -7.78361 -0.667651 -0.744474 1 0.5 0 1
120 1 60.4087 19.4811 0 60.4087 19.4811 0 -494.813 523.201 -7.1286 10.4678 0.889483 0.456969 1 0.5 0 1
121 1 0.188407 33.1434 0 0.188407 33.1434 0 35.2555 -443.581 -52.3899 -46.3908 -0.929697 -0.368324 1 0.5 0 1
122 1 57.8634 44.989 0 57.8634 44.989 0 357.845 -428.355 -47.5881 5.17321 -0.984638 0.174608 1 0.5 0 1
123 1 35.1337 33.4709 0 35.1337 33.4709 0 241.446 485.701 -54.6902 10.8653 -0.513189 0.858276 1 0.5 0 1
124 1 34.3089 4.18727 0 34.3089 4.18727 0 -61.6698 309.976 80.1766 -46.2489 0.988745 -0.14961 1 0.5 0 1
125 1 21.9614 30.9676 0 21.9614 30.9676 0 96.6014 135.004 16.7297 6.95034 0.945576 -0.325401 1 0.5 0 1
126 1 62.0186 65.679 0 62.0186 65.679 0 396.61 183.645 17.8219 -66.5875 -0.99519 -0.0979652 1 0.5 0 1
127 1 56.2642 64.317 0 56.2642 64.317 0 -129.016 -162.014 -26.9371 157.156 0.281164 0.95966 1 0.5 0 1
128 1 78.7198 58.273 0 -0.546156 58.273 0 388.86 135.958 -12.6534 -114.508 -0.71732 -0.696744 1 0.5 0 1
129 1 40.299 12.9888 0 40.299 12.9888 0 -609.811 294.704 32.3973 101.986 0.656115 -0.754661 1 0.5 0 1
130 1 50.3534 76.4593 0 50.3534 -2.80668 0 -945.727 425.825 -32.9726 -5.07875 -0.411053 -0.911611 1 0.5 0 1
131 1 23.6512 56.4959 0 23.6512 56.4959 0 -331.089 1217.91 11.051 24.4676 -0.928811 0.370553 1 0.5 0 1
132 1 39.1672 2.04077 0 39.1672 81.3068 0 -282.24 356.03 -73.3939 -1.72851 -0.951512 0.307613 1 0.5 0 1
133 1 68.8089 77.888 0 68.8089 77.888 0 212.939 33.1542 -73.8624 55.3884 0.523317 0.852138 1 0.5 0 1
134 1 75.0064 56.3891 0 75.0064 56.3891 0 58.5585 -825.29 91.5491 171.059 0.239648 0.97086 1 0.5 0 1
135 1 73.0715 75.3176 0 73.0715 75.3176 0 -878.008 219.778 -22.2941 37.8655 -0.328427 0.944529 1 0.5 0 1
136 1 4.26358 61.8823 0 4.26358 61.8823 0 278.168 249.802 28.1055 95.9692 0.281055 0.959692 1 0.5 0 1
137 1 0.7832 27.7811 0 80.0492 27.7811 0 -271.068 441.655 15.1724 -24.429 0.873572 0.486695 1 0.5 0 1
138 1 56.9421 29.261 0 56.9421 29.261 0 -661.189 321.309 24.4534 -14.5851 -0.984411 0.175883 1 0.5 0 1
139 1 56.7453 5.70461 0 56.7453 5.70461 0 31.9974 267.082 -89.2088 45.1861 -0.892088 0.451861 1 0.5 0 1
140 1 26.9164 28.6092 0 26.9164 28.6092 0 -105.492 -262.208 15.2833 -98.8252 0.152833 -0.988252 1 0.5 0 1
141 1 51.9925 39.6482 0 51.9925 39.6482 0 155.358 -302.377 -77.1086 63.6731 -0.771086 0.636731 1 0.5 0 1
142 1 29.1373 43.5746 0 29.1373 43.5746 0 145.603 728.522 64.8555 76.1168 0.648555 0.761168 1 0.5 0 1
143 1 18.8995 58.5265 0 18.8995 58.5265 0 129.565 -568.135 71.8334 17.8568 0.69328 0.720669 1 0.5 0 1
144 1 59.6186 26.9309 0 59.6186 26.9309 0 845.441 158.392 -4.48579 -14.2296 0.616754 -0.787156 1 0.5 0 1
145 1 75.757 52.7072 0 75.757 52.7072 0 323.526 74.357 19.9615 -42.1537 0.392035 0.91995 1 0.5 0 1
146 1 40.6171 19.0561 0 40.6171 19.0561 0 272.702 -314.458 -52.7703 -84.5911 -0.665111 -0.746744 1 0.5 0 1
147 1 76.3146 39.0012 0 76.3146 39.0012 0 354.963 -956.135 -3.41613 -96.8147 0.156197 -0.987726 1 0.5 0 1
148 1 73.8294 33.4316 0 73.8294 33.4316 0 -394.572 -57.5073 96.0981 17.3101 -0.806437 -0.59132 1 0.5 0 1
149 1 54.2455 7.25915 0 54.2455 86.5252 0 1129.73 -931.616 40.8032 3.89806 0.0509778 0.9987 1 0.5 0 1
150 1 14.0934 18.6924 0 14.0934 18.6924 0 170.528 -279.082 78.5685 74.6584 -0.519454 0.854498 1 0.5 0 1
151 1 56.6163 10.3609 0 56.6163 10.3609 0 -153.481 -302.509 -90.5734 -23.594 0.861025 -0.508562 1 0.5 0 1
152 1 4.41683 6.7589 0 4.41683 86.0249 0 644.145 -37.3832 53.0839 -20.8009 -0.224084 0.97457 1 0.5 0 1
153 1 50.7518 60.759 0 50.7518 60.759 0 -1136.53 -652.104 75.8254 -32.204 0.973103 0.23037 1 0.5 0 1
154 1 74.1418 66.5053 0 -5.12417 66.5053 0 -350.156 698.523 61.7289 68.0118 -0.15779 -0.987473 1 0.5 0 1
155 1 3.71253 1.81111 0 3.71253 1.81111 0 -202.794 -401.031 -96.6077 -25.8253 -0.966077 -0.258253 1 0.5 0 1
156 1 72.9609 42.6213 0 72.9609 42.6213 0 -221.965 538.593 -132.435 33.1459 0.199682 0.979861 1 0.5 0 1
157 1 8.4786 19.0365 0 8.4786 19.0365 0 28.4612 -227.683 -8.15636 3.84784 -0.757457 -0.652885 1 0.5 0 1
158 1 12.8356 34.681 0 12.8356 34.681 0 -55.217 -268.465 96.6548 36.8212 -0.943208 0.332204 1 0.5 0 1
159 1 72.1825 56.7683 0 72.1825 56.7683 0 -216.13 -129.221 81.6857 -61.9497 0.815737 -0.578423 1 0.5 0 1
160 1 19.8805 44.7634 0 19.8805 44.7634 0 774.14 -143.726 60.1575 -50.7644 0.607027 -0.794682 1 0.5 0 1
161 1 10.6283 27.2386 0 10.6283 27.2386 0 559.554 220.529 -77.6768 137.835 -0.494069 0.869423 1 0.5 0 1
162 1 20.3112 65.4828 0 20.3112 65.4828 0 544.143 -668.54 -77.024 125.413 -0.726616 -0.687044 1 0.5 0 1
163 1 49.6691 52.1317 0 49.6691 52.1317 0 -171.726 -263.697 74.652 -66.6329 0.444808 -0.895626 1 0.5 0 1
164 1 25.554 65.0066 0 25.554 65.0066 0 783.204 268.89 -50.2301 -42.0679 0.106758 -0.994285 1 0.5 0 1
165 1 43.5217 49.5558 0 43.5217 49.5558 0 17.4114 -161.028 -62.4701 75.4794 -0.0459213 -0.998945 1 0.5 0 1
166 1 65.4579 18.2032 0 65.4579 18.2032 0 646.908 542.912 -64.3276 58.6904 -0.992581 -0.121585 1 0.5 0 1
167 1 23.7628 28.5695 0 23.7628 28.5695 0 -298.161 -105.66 -2.16025 4.17309 0.345601 0.938381 1 0.5 0 1
168 1 49.0226 55.8045 0 49.0226 55.8045 0 -599.245 444.379 -9.83731 63.3455 0.844213 0.536009 1 0.5 0 1
169 1 45.0546 51.1517 0 45.0546 51.1517 0 -226.764 66.2437 60.0339 44.2954 -0.671114 0.741354 1 0.5 0 1
170 1 75.1793 51.7241 0 75.1793 51.7241 0 -380.393 510.41 0.498403 166.81 0.287314 0.957836 1 0.5 0 1
171 1 75.4748 60.165 0 75.4748 60.165 0 -647.874 396.211 19.7861 -10.5334 0.0715956 -0.997434 1 0.5 0 1
172 1 49.244 76.3325 0 49.244 -2.93354 0 130.949 278.513 9.66708 -41.6294 -0.846248 -0.532789 1 0.5 0 1
173 1 49.6894 44.449 0 49.6894 44.449 0 267.988 -469.488 78.5348 -129.921 0.459814 -0.888015 1 0.5 0 1
174 1 32.889 25.6998 0 32.889 25.6998 0 -104.253 228.757 -99.476 10.2237 -0.99476 0.102237 1 0.5 0 1
175 1 14.7489 9.83711 0 14.7489 9.83711 0 216.144 -190.863 -0.988691 4.84093 0.768988 -0.639263 1 0.5 0 1
176 1 50.109 53.9552 0 50.109 53.9552 0 204.359 55.8946 -86.9256 -54.2361 -0.999573 -0.0292305 1 0.5 0 1
177 1 49.7739 63.2049 0 49.7739 63.2049 0 990.603 1476.7 -99.3548 31.2382 -0.988774 -0.149416 1 0.5 0 1
178 1 0.637246 77.5342 0 0.637246 77.5342 0 554.259 -200.593 -7.89372 -20.012 -0.983317 0.181903 1 0.5 0 1
179 1 28.0657 72.6225 0 28.0657 -6.64351 0 482.179 -549.199 -30.4523 -91.496 -0.888423 -0.459025 1 0.5 0 1
180 1 69.3163 35.1299 0 69.3163 35.1299 0 -63.976 561.564 138.841 -39.6552 0.935144 0.354268 1 0.5 0 1
181 1 60.8232 16.0591 0 60.8232 16.0591 0 137.285 338.367 -32.9109 53.9201 -0.207123 0.978315 1 0.5 0 1
182 1 42.4168 7.2053 0 42.4168 86.4713 0 21.6906 104.891 36.1681 61.8122 0.258152 0.966104 1 0.5 0 1
183 1 25.7137 26.117 0 25.7137 26.117 0 19.2847 572.777 -89.511 -134.435 0.149413 -0.988775 1 0.5 0 1
184 1 68.2399 30.5112 0 68.2399 30.5112 0 675.714 163.747 -28.3918 26.2547 -0.999219 0.0395152 1 0.5 0 1
185 1 52.8401 52.3365 0 52.8401 52.3365 0 -260.907 245.176 -95.8736 92.3059 0.793082 0.609115 1 0.5 0 1
186 1 37.5011 25.208 0 37.5011 25.208 0 -104.336 -752.446 45.5513 1.92056 0.781177 0.62431 1 0.5 0 1
187 1 17.8845 72.6899 0 17.8845 72.6899 0 -488.757 -187.779 -38.0538 -12.962 -0.652405 0.757871 1 0.5 0 1
188 1 72.8002 69.1815 0 72.8002 69.1815 0 -601.208 -451.725 26.8688 -3.31307 0.685542 -0.728033 1 0.5 0 1
189 1 2.47358 38.2947 0 2.47358 38.2947 0 -476.323 -144.445 -63.558 -28.2136 -0.272476 -0.962163 1 0.5 0 1
190 1 29.4617 57.7629 0 29.4617 57.7629 0 291.067 -724.359 -78.4846 -56.5141 -0.995497 0.0947945 1 0.5 0 1
191 1 75.0026 1.3927 0 75.0026 1.3927 0 -160.396 -802.446 79.3232 -67.2399 -0.304729 -0.952439 1 0.5 0 1
192 1 56.1155 21.3161 0 56.1155 21.3161 0 713.647 -122.49 -58.5817 -21.2678 0.997585 0.0694609 1 0.5 0 1
193 1 37.646 9.93545 0 37.646 9.93545 0 -423.502 -787.685 -35.6842 -44.3205 -0.916651 0.399689 1 0.5 0 1
194 1 61.8746 50.4558 0 61.8746 50.4558 0 -58.9319 368.035 -29.7805 96.5521 -0.0786075 0.996906 1 0.5 0 1
195 1 26.0382 16.7301 0 26.0382 16.7301 0 626.677 -882.967 -52.7312 84.9672 -0.527312 0.849672 1 0.5 0 1
196 1 65.6787 35.938 0 65.6787 35.938 0 -181.841 790.189 23.8184 -72.1264 -0.169098 -0.985599 1 0.5 0 1
197 1 8.75461 39.1661 0 8.75461 39.1661 0 -221.07 -560.663 -16.5796 -38.6257 -0.263586 0.964636 1 0.5 0 1
198 1 69.2697 36.1645 0 69.2697 36.1645 0 95.89 -108.67 -9.46143 -26.7689 -0.0751222 -0.997174 1 0.5 0 1
199 1 30.0695 13.5484 0 30.0695 13.5484 0 351.363 -433.13 26.8616 93.0534 0.387691 0.92179 1 0.5 0 1
200 1 1.54266 45.1456 0 1.54266 45.1456 0 822.687 -52.3659 12.3076 57.3433 0.523811 0.851834 1 0.5 0 1
201 1 35.9197 70.5116 0 35.9197 -8.7544 0 -140.675 44.658 -18.9681 -91.8535 -0.0107482 -0.999942 1 0.5 0 1
202 1 76.5579 23.0384 0 -2.70809 23.0384 0 -430.153 -360.923 51.8343 25.8784 -0.720586 -0.693365 1 0.5 0 1
203 1 32.7755 49.6452 0 32.7755 49.6452 0 -30.9822 71.0208 -48.5374 39.5461 -0.815451 0.578826 1 0.5 0 1
204 1 5.6783 11.7995 0 5.6783 11.7995 0 -380.294 333.906 116.729 101.749 0.191261 0.981539 1 0.5 0 1
205 1 39.8799 62.392 0 39.8799 62.392 0 462.722 -8.08322 -15.747 -116.01 -0.380325 -0.924853 1 0.5 0 1
206 1 17.3365 11.2273 0 17.3365 11.2273 0 562.945 378.326 -8.09171 -87.8619 -0.162745 -0.986668 1 0.5 0 1
207 1 27.0305 43.6031 0 27.0305 43.6031 0 92.2595 2.26634 -84.5185 49.2537 -0.775743 0.63105 1 0.5 0 1
208 1 61.1347 62.424 0 61.1347 62.424 0 203.847 -186.676 -43.2453 23.5931 -0.0267183 0.999643 1 0.5 0 1
209 1 64.1209 16.6911 0 64.1209 16.6911 0 724.088 966.943 41.2648 47.3451 0.655101 0.755541 1 0.5 0 1
210 1 42.8918 3.66048 0 42.8918 82.9265 0 -876.757 361.717 14.5157 75.4616 -0.753881 0.657012 1 0.5 0 1
211 1 65.8896 34.8682 0 65.8896 34.8682 0 539.376 362.735 -123.905 152.629 -0.843526 0.537088 1 0.5 0 1
212 1 67.3548 76.3838 0 67.3548 -2.88218 0 448.462 634.405 62.4957 -28.5902 0.587701 -0.809078 1 0.5 0 1
213 1 13.1429 63.2009 0 13.1429 63.2009 0 664.435 510.332 72.3853 -68.9954 0.723853 -0.689954 1 0.5 0 1
214 1 42.7071 63.0798 0 42.7071 63.0798 0 100.619 -439.344 -17.2955 -53.9255 -0.11303 0.993592 1 0.5 0 1
215 1 0.447793 74.901 0 0.447793 -4.365 0 584.016 -165.515 74.4509 12.1422 0.0899757 -0.995944 1 0.5 0 1
216 1 27.4542 75.0665 0 27.4542 75.0665 0 -66.8505 155.814 -122.234 20.4029 -0.537477 0.843278 1 0.5 0 1
217 1 50.7777 37.1909 0 50.7777 37.1909 0 107.059 -288.475 42.8044 -11.8781 -0.949218 0.314618 1 0.5 0 1
218 1 9.75716 30.3063 0 9.75716 30.3063 0 -648.119 394.027 5.71651 94.144 0.692908 0.721026 1 0.5 0 1
219 1 44.7359 52.3591 0 44.7359 52.3591 0 128.2 -202.476 96.0868 -59.324 0.923625 -0.383298 1 0.5 0 1
220 1 47.0626 15.2161 0 47.0626 15.2161 0 483.57 100.19 126.529 35.2874 0.994351 -0.106144 1 0.5 0 1
221 1 54.0905 29.8404 0 54.0905 29.8404 0 -107.579 547.918 76.6735 -55.2255 -0.0138109 0.999905 1 0.5 0 1
222 1 44.9777 11.3691 0 44.9777 11.3691 0 250.261 216.447 -24.2217 -10.4163 -0.886587 -0.462562 1 0.5 0 1
223 1 8.48096 25.4547 0 8.48096 25.4547 0 -102.616 109.315 37.7197 131.039 0.271599 0.962411 1 0.5 0 1
224 1 78.6115 64.1931 0 -0.654549 64.1931 0 -401.503 -165.241 -95.7043 28.9947 -0.957043 0.289947 1 0.5 0 1
225 1 76.0689 20.6429 0 76.0689 20.6429 0 413.644 244.499 -78.0137 85.4437 -0.653383 -0.757028 1 0.5 0 1
226 1 47.4965 36.4754 0 47.4965 36.4754 0 -594.861 -7.8883 -99.0679 -24.644 -0.438982 -0.898496 1 0.5 0 1
227 1 52.9185 13.3453 0 52.9185 13.3453 0 156.829 -490.368 116.832 -29.5553 0.9095 0.415704 1 0.5 0 1
228 1 22.8794 62.0828 0 22.8794 62.0828 0 23.2173 -362.38 18.8624 7.62069 -0.0839567 0.996469 1 0.5 0 1
229 1 50.5659 29.1544 0 50.5659 29.1544 0 -86.1708 220.7 65.0294 29.7619 0.92558 0.378552 1 0.5 0 1
230 1 73.6831 5.27088 0 73.6831 84.5369 0 444.032 -452.583 -16.2011 50.7035 -0.617465 0.786598 1 0.5 0 1
231 1 24.9103 47.8489 0 24.9103 47.8489 0 -413.197 -7.97312 -147.572 43.7635 0.901024 -0.433769 1 0.5 0 1
232 1 37.9266 2.48929 0 37.9266 2.48929 0 486.582 564.075 -57.3033 -95.4172 -0.294188 -0.955748 1 0.5 0 1
233 1 63.6792 53.7497 0 63.6792 53.7497 0 -567.874 -263.771 -83.6982 -54.723 -0.836982 -0.54723 1 0.5 0 1
234 1 54.5995 78.3228 0 54.5995 -0.943202 0 -201.053 -796.174 -85.0957 24.6839 -0.606633 -0.794982 1 0.5 0 1
235 1 18.6555 62.3141 0 18.6555 62.3141 0 -527.45 -443.023 21.3478 7.26179 0.235106 0.97197 1 0.5 0 1
236 1 60.6147 66.4261 0 60.6147 66.4261 0 -54.4712 169.335 -55.6107 -2.01088 0.964279 -0.264888 1 0.5 0 1
237 1 26.3712 30.2012 0 26.3712 30.2012 0 846.813 73.6866 69.5647 57.8757 0.75592 0.654664 1 0.5 0 1
238 1 53.9843 61.5688 0 53.9843 61.5688 0 -65.2645 -101.488 -127.231 -82.2224 0.236274 -0.971686 1 0.5 0 1
239 1 77.684 17.4773 0 77.684 17.4773 0 462.954 -304.535 70.3981 49.9485 0.466469 0.884538 1 0.5 0 1
240 1 6.77071 25.2545 0 6.77071 25.2545 0 -786.308 -46.882 89.3114 58.875 0.870543 0.492092 1 0.5 0 1
241 1 68.5284 75.6702 0 68.5284 75.6702 0 143.596 -185.486 -17.5725 -24.7698 -0.809858 -0.586625 1 0.5 0 1
242 1 60.2148 76.7394 0 60.2148 -2.5266 0 -150.682 -482.136 10.7143 -17.1612 0.463963 -0.885854 1 0.5 0 1
243 1 22.4897 66.4175 0 22.4897 66.4175 0 977.526 -318.526 12.2776 42.4725 -0.994781 0.102032 1 0.5 0 1
244 1 56.9601 44.2041 0 56.9601 44.2041 0 282.253 -65.2306 -40.1271 -117.148 -0.920163 -0.391535 1 0.5 0 1
245 1 45.508 27.9506 0 45.508 27.9506 0 -69.3476 518.56 -76.2731 5.20055 0.30439 0.952548 1 0.5 0 1
246 1 22.9222 36.3295 0 22.9222 36.3295 0 145.672 -834.61 15.0979 -78.6234 0.670456 -0.741949 1 0.5 0 1
247 1 61.6922 78.3394 0 61.6922 -0.926595 0 -470.101 -1163.27 95.7806 103.214 0.00703489 -0.999975 1 0.5 0 1
248 1 12.1149 0.293119 0 12.1149 79.5591 0 408.132 -165.615 -100.504 -2.35007 -0.734104 0.679037 1 0.5 0 1
249 1 31.5522 15.4537 0 31.5522 15.4537 0 517.132 185.019 -24.2281 -1.60538 0.856157 -0.516716 1 0.5 0 1
250 1 1.42838 29.664 0 80.6944 29.664 0 -254.216 603.643 192.319 64.2358 0.982387 -0.186857 1 0.5 0 1
251 1 26.122 75.9738 0 26.122 75.9738 0 739.602 118.242 74.4896 61.4571 0.993791 0.111262 1 0.5 0 1
252 1 22.1676 55.2654 0 22.1676 55.2654 0 -76.6295 -540.065 -61.4617 50.8001 -0.195523 0.980699 1 0.5 0 1
253 1 28.4842 31.1991 0 28.4842 31.1991 0 -481.356 4.70263 -73.0231 60.2891 -0.631764 0.77516 1 0.5 0 1
254 1 43.9323 45.4192 0 43.9323 45.4192 0 -275.677 396.264 -26.9836 70.5941 -0.960123 0.279577 1 0.5 0 1
255 1 0.135567 66.5667 0 79.4016 66.5667 0 512.081 382.455 69.3474 54.4476 0.483911 0.875117 1 0.5 0 1
256 1 77.7563 35.1819 0 -1.50973 35.1819 0 -626.732 -377.934 -0.679903 4.15394 -0.815967 0.578099 1 0.5 0 1
257 1 39.2769 72.2055 0 39.2769 72.2055 0 49.7766 -173.523 17.5083 98.4554 0.175083 0.984554 1 0.5 0 1
258 1 16.3019 23.7405 0 16.3019 23.7405 0 -382.365 536.107 52.3473 137.286 -0.991898 0.127033 1 0.5 0 1
259 1 9.90496 11.4842 0 89.171 11.4842 0 515.642 39.6602 18.3751 -1.92087 0.953045 0.302829 1 0.5 0 1
260 1 73.2323 53.9775 0 73.2323 53.9775 0 456.602 164.849 -143.792 -43.7326 0.700412 0.713739 1 0.5 0 1
261 1 15.1332 40.8921 0 15.1332 40.8921 0 -67.5415 -218.581 -154.621 -22.4434 -0.314704 -0.94919 1 0.5 0 1
262 1 7.83513 13.7229 0 87.1011 13.7229 0 148.292 -307.516 -36.4956 -75.0229 0.850153 -0.526536 1 0.5 0 1
263 1 9.49856 10.5208 0 9.49856 10.5208 0 193.705 -24.3389 -3.60151 -62.0062 0.381977 -0.924172 1 0.5 0 1
264 1 6.91708 17.951 0 86.1831 17.951 0 489.913 -24.2486 -103.909 106.969 0.997817 0.0660461 1 0.5 0 1
265 1 24.7543 69.9385 0 24.7543 69.9385 0 -370.416 519.582 -7.27941 21.9093 -0.223509 0.974702 1 0.5 0 1
266 1 24.2483 74.4751 0 24.2483 74.4751 0 619.445 -699.809 20.6688 -79.4637 0.3879 -0.921702 1 0.5 0 1
267 1 12.3551 17.5974 0 12.3551 17.5974 0 443.857 878.786 33.81 94.0462 -0.7439 -0.668291 1 0.5 0 1
268 1 47.8042 73.7356 0 47.8042 73.7356 0 -471.156 -915.649 -88.6484 76.1301 0.746596 0.665278 1 0.5 0 1
269 1 12.1156 27.9111 0 91.3816 27.9111 0 397.026 260.864 164.053 21.982 0.966066 0.258296 1 0.5 0 1
270 1 3.7922 7.57713 0 83.0582 7.57713 0 188.228 -393.763 65.512 -53.9959 0.97029 -0.241946 1 0.5 0 1
271 1 25.7945 60.6548 0 25.7945 60.6548 0 327.428 -243.921 -48.3747 87.074 0.647742 -0.76186 1 0.5 0 1
272 1 47.6158 24.0233 0 47.6158 24.0233 0 177.094 -294.141 98.702 16.0597 0.98702 0.160597 1 0.5 0 1
273 1 37.0718 30.5661 0 37.0718 30.5661 0 -61.8198 -865.391 66.4674 43.8698 0.537929 0.84299 1 0.5 0 1
274 1 33.5395 19.8667 0 33.5395 19.8667 0 454.831 251.467 -11.9197 -34.8037 -0.389727 -0.92093 1 0.5 0 1
275 1 24.4661 2.70864 0 24.4661 2.70864 0 339.597 -134.205 -27.3404 153.182 0.986009 -0.166694 1 0.5 0 1
276 1 49.0559 27.8432 0 49.0559 27.8432 0 13.5025 986.201 -13.3544 99.1043 -0.133544 0.991043 1 0.5 0 1
277 1 0.875444 46.049 0 0.875444 46.049 0 -626.519 412.321 -84.2792 -46.0396 -0.863445 -0.504444 1 0.5 0 1
278 1 9.07525 41.9866 0 9.07525 41.9866 0 617.709 752.091 36.3285 143.555 0.152396 0.98832 1 0.5 0 1
279 1 67.7051 18.1776 0 67.7051 18.1776 0 341.168 33.722 75.6639 143.487 0.666869 0.745175 1 0.5 0 1
280 1 67.2262 10.892 0 67.2262 10.892 0 -340.532 330.477 75.1465 -15.5797 0.999509 0.0313313 1 0.5 0 1
281 1 48.5502 36.8524 0 48.5502 36.8524 0 188.11 -225.881 -6.34164 -6.26935 0.505335 0.862923 1 0.5 0 1
282 1 27.3787 35.8044 0 27.3787 35.8044 0 1047.41 -480.477 -64.8594 224.063 0.149164 -0.988813 1 0.5 0 1
283 1 14.9387 63.1502 0 14.9387 63.1502 0 941.514 -337.238 61.638 -41.5733 -0.268667 0.963233 1 0.5 0 1
284 1 20.6265 73.3992 0 20.6265 73.3992 0 630.624 -125.934 -58.8493 67.6272 -0.758561 0.651602 1 0.5 0 1
285 1 2.83035 44.3593 0 82.0964 44.3593 0 -15.183 509.426 -62.5897 -17.1973 -0.227865 -0.973693 1 0.5 0 1
286 1 25.8749 45.1643 0 25.8749 45.1643 0 -599.925 -392.503 -29.2416 86.7494 -0.378005 0.925803 1 0.5 0 1