ITEM: TIMESTEP
480000
ITEM: NUMBER OF ATOMS
4000
ITEM: BOX BOUNDS pp pp pp
0.0000000000000000e+00 7.9266000000000005e+01
0.0000000000000000e+00 7.9266000000000005e+01
-5.0000000000000000e-01 5.0000000000000000e-01
ITEM: ATOMS id type x y z xu yu zu vx vy fx fy mux muy mu radius omegaz mass
1 1 9.42793 65.5908 0 88.6939 65.5908 0 -186.317 -162.794 17.1474 53.7442 0.0614984 -0.998107 1 0.5 0 1
2 1 59.9593 20.0049 0 59.9593 20.0049 0 977.703 916.723 -11.1171 -154.582 -0.941763 -0.336278 1 0.5 0 1
3 1 40.1001 34.6385 0 40.1001 -44.6275 0 -80.3429 416.813 -34.4202 29.7449 0.858444 -0.512907 1 0.5 0 1
4 1 0.962339 16.7832 0 0.962339 16.7832 0 252.915 -375.037 -23.3375 25.6992 -0.926577 0.376105 1 0.5 0 1
5 1 0.455911 32.5175 0 0.455911 32.5175 0 -573.277 -82.9254 -62.2489 112.084 -0.918012 0.396552 1 0.5 0 1
6 1 67.7157 30.895 0 -11.5503 30.895 0 219.562 418.91 -92.0315 158.227 0.969179 -0.246356 1 0.5 0 1
7 1 67.1167 51.4973 0 67.1167 51.4973 0 -710.121 -344.668 121.405 45.0933 -0.138428 0.990373 1 0.5 0 1
8 1 14.9796 28.2997 0 14.9796 -50.9663 0 507.319 719.695 6.90097 54.08 -0.422245 -0.906482 1 0.5 0 1
9 1 66.1403 28.716 0 66.1403 28.716 0 438.264 -460.594 -77.9102 -357.8 0.381961 0.924178 1 0.5 0 1
10 1 21.2721 54.362 0 21.2721 54.362 0 -637.213 -10.792 162.867 -67.7827 -0.825323 0.564662 1 0.5 0 1
11 1 64.5462 13.7733 0 -93.9858 13.7733 0 -262.054 133.976 -44.3409 99.2668 0.798844 0.601539 1 0.5 0 1
12 1 77.363 23.7842 0 77.363 103.05 0 -638.314 -774.462 74.0622 -25.8158 -0.967538 -0.252725 1 0.5 0 1
13 1 76.4782 66.2239 0 76.4782 -13.0421 0 557.379 -205.706 -57.4082 30.3444 -0.898874 0.438206 1 0.5 0 1
14 1 13.6968 40.586 0 -144.835 40.586 0 -547.833 -229.807 -87.448 -163.289 -0.986975 0.160871 1 0.5 0 1
15 1 8.80782 36.8902 0 8.80782 36.8902 0 -945.69 -286.33 -200.157 -174.428 -0.705916 0.708296 1 0.5 0 1
16 1 15.7554 51.1182 0 -63.5106 -28.1478 0 -151.2 160.774 70.112 107.321 -0.191363 -0.981519 1 0.5 0 1
17 1 42.2883 39.187 0 121.554 118.453 0 -810.006 55.0307 4.33687 -67.1281 0.942603 -0.333915 1 0.5 0 1
18 1 75.8933 74.9088 0 -3.37274 -4.35717 0 -695.118 455.002 22.4724 23.1322 0.924871 0.380281 1 0.5 0 1
19 1 3.69857 44.4284 0 3.69857 44.4284 0 334.302 655.47 23.7242 115.358 -0.206615 0.978422 1 0.5 0 1
20 1 28.5083 58.7393 0 28.5083 58.7393 0 478.066 276.035 99.9856 -1.69921 0.999856 -0.0169921 1 0.5 0 1
21 1 1.41461 29.2148 0 1.41461 29.2148 0 1009.97 647.361 -48.329 -125.94 0.124407 0.992231 1 0.5 0 1
22 1 78.769 22.4406 0 78.769 22.4406 0 -406.068 -52.0153 -75.8422 63.517 -0.905376 -0.424611 1 0.5 0 1
23 1 41.9198 47.3423 0 121.186 47.3423 0 160.275 -62.6965 53.9457 10.3857 0.0320651 -0.999486 1 0.5 0 1
24 1 67.2669 58.6209 0 67.2669 -20.6451 0 10.4563 -825.964 -179.719 51.9437 -0.107788 -0.994174 1 0.5 0 1
25 1 46.4553 30.9176 0 -32.8107 -48.3484 0 -372.577 -996.49 -93.6268 5.12514 -0.196056 -0.980593 1 0.5 0 1
26 1 53.6751 64.6683 0 53.6751 -93.8637 0 68.9698 181.081 47.6961 -134.539 -0.618948 0.785432 1 0.5 0 1
27 1 71.9789 20.48 0 -7.28709 99.746 0 422.64 224.973 -62.9044 -134.726 -0.440751 -0.897629 1 0.5 0 1
28 1 73.1496 3.23658 0 -6.11644 82.5026 0 622.334 -163.413 -98.1755 19.0151 -0.981755 0.190151 1 0.5 0 1
29 1 73.7549 39.8102 0 -5.51114 39.8102 0 -645.444 -958.603 -102.734 216.474 -0.842942 -0.538005 1 0.5 0 1
30 1 3.79634 12.1264 0 83.0623 91.3924 0 422.03 -116.261 -11.3372 -8.3647 0.933546 0.358457 1 0.5 0 1
31 1 72.1653 27.6271 0 -7.10075 27.6271 0 380.359 487.352 16.9159 107.026 -0.733114 0.680106 1 0.5 0 1
32 1 1.37758 17.7398 0 1.37758 17.7398 0 -109.251 -506.438 -81.0225 160.475 0.687882 -0.725823 1 0.5 0 1
33 1 65.9329 60.0423 0 65.9329 -19.2237 0 675.349 80.8629 -48.3573 75.9038 0.650062 -0.759881 1 0.5 0 1
34 1 8.0497 49.1326 0 87.3157 49.1326 0 -86.8894 322.896 -33.495 -6.22049 -0.0249005 0.99969 1 0.5 0 1
35 1 36.9452 40.9113 0 -42.3208 40.9113 0 280.663 425.705 -43.0489 -65.1041 -0.986702 0.162543 1 0.5 0 1
36 1 60.6659 60.6063 0 60.6659 -18.6597 0 510.023 -432.68 -38.4025 157.211 0.114537 0.993419 1 0.5 0 1
37 1 69.5077 44.1074 0 69.5077 44.1074 0 -37.9995 824.255 -6.02389 -96.6966 -0.546247 0.837624 1 0.5 0 1
38 1 1.90068 11.2693 0 160.433 90.5353 0 65.9163 -248.451 95.471 33.1732 0.932758 -0.360504 1 0.5 0 1
39 1 7.98637 25.1414 0 87.2524 -54.1246 0 -71.6073 -504.18 -66.1422 -87.5544 0.991262 0.13191 1 0.5 0 1
40 1 56.4038 18.486 0 -22.8622 97.752 0 513.587 38.11 -27.0781 -96.0849 0.603872 0.797081 1 0.5 0 1
41 1 69.574 53.9137 0 69.574 53.9137 0 451.62 716.549 -125.861 -5.36496 0.725878 0.687824 1 0.5 0 1
42 1 75.6887 59.5164 0 -3.57727 59.5164 0 -385.49 718.816 89.1642 7.79344 0.697231 -0.716846 1 0.5 0 1
43 1 77.1467 16.1456 0 -81.3853 95.4116 0 25.2934 -561.291 46.1521 54.6494 -0.860656 -0.509186 1 0.5 0 1
44 1 63.2211 21.6881 0 63.2211 100.954 0 74.2987 880.812 -28.9239 -45.1891 0.486862 0.873479 1 0.5 0 1
45 1 23.6738 57.8612 0 23.6738 -100.671 0 104.602 559.763 -45.8581 -40.6307 -0.512442 -0.858722 1 0.5 0 1
46 1 4.97281 45.6984 0 4.97281 45.6984 0 -515.644 -914.024 87.167 25.9714 -0.733283 -0.679923 1 0.5 0 1
47 1 59.6561 63.1024 0 59.6561 -16.1636 0 -744.543 -253.613 -167.457 -78.2873 -0.998638 0.0521759 1 0.5 0 1
48 1 13.8696 46.9574 0 13.8696 46.9574 0 541.036 -311.283 -87.487 -73.1177 0.993696 -0.112106 1 0.5 0 1
49 1 40.9683 58.0168 0 40.9683 58.0168 0 546.856 -474.086 -97.6988 76.8509 -0.28458 0.958652 1 0.5 0 1
50 1 61.7096 13.9625 0 -17.5564 13.9625 0 -268.759 570.534 -31.2075 -87.6087 0.960973 -0.276642 1 0.5 0 1
51 1 45.4992 61.5393 0 -113.033 -17.7267 0 -556.606 -89.4367 34.2494 -22.6128 0.640801 -0.767707 1 0.5 0 1
52 1 1.71319 33.7658 0 80.9792 33.7658 0 -147.642 202.707 10.7709 -281.769 0.999103 -0.0423402 1 0.5 0 1
53 1 14.9299 57.364 0 14.9299 136.63 0 89.0159 427.818 2.8865 -93.81 0.781537 -0.623859 1 0.5 0 1
54 1 51.8067 31.9826 0 51.8067 31.9826 0 117.587 463.435 -73.0844 75.2941 -0.736237 0.676724 1 0.5 0 1
55 1 15.0542 41.6907 0 94.3202 120.957 0 533.2 248.581 -29.7088 -156.323 -0.0187685 -0.999824 1 0.5 0 1
56 1 39.1275 43.6928 0 39.1275 43.6928 0 492.261 -241.408 -35.4865 -31.0032 0.5397 0.841858 1 0.5 0 1
57 1 79.1031 0.359086 0 -0.162929 79.6251 0 101.345 -535.596 -73.9622 -25.6249 -0.750888 -0.66043 1 0.5 0 1
58 1 65.412 29.3519 0 -13.854 29.3519 0 -456.258 -9.96612 -27.2122 -7.71095 -0.649294 -0.760538 1 0.5 0 1
59 1 51.3008 36.2325 0 51.3008 36.2325 0 294.062 496.613 162.106 120.025 0.961368 -0.275265 1 0.5 0 1
60 1 55.8828 42.8859 0 55.8828 42.8859 0 -140.587 669.321 -49.4909 63.9956 -0.313866 -0.949467 1 0.5 0 1
61 1 58.5714 46.3669 0 58.5714 46.3669 0 20.4633 266.215 98.7254 -167.867 -0.667578 -0.74454 1 0.5 0 1
62 1 58.1359 7.82461 0 137.402 7.82461 0 118.063 660.767 26.1546 -96.5191 0.261546 -0.965191 1 0.5 0 1
63 1 18.0855 64.2178 0 -61.1805 -15.0482 0 -237.029 -904.648 59.4092 205.594 0.999917 -0.0129106 1 0.5 0 1
64 1 16.7253 31.9918 0 95.9913 111.258 0 389.084 -349.732 -83.8728 -34.8478 -0.999968 0.00803222 1 0.5 0 1
65 1 42.5946 33.5932 0 201.127 112.859 0 -434.298 449.091 90.0953 44.7355 0.53116 0.847271 1 0.5 0 1
66 1 15.2133 45.4345 0 94.4793 124.701 0 -318.325 -482.541 76.7024 -57.9094 -0.267192 -0.963643 1 0.5 0 1
67 1 53.8057 45.108 0 53.8057 45.108 0 -125.086 -274.61 -57.7659 157.99 -0.513125 -0.858314 1 0.5 0 1
68 1 13.0084 41.337 0 13.0084 41.337 0 644.838 233.176 14.0134 -89.5168 0.622695 -0.782464 1 0.5 0 1
69 1 55.2288 22.2915 0 55.2288 22.2915 0 -743.929 5.27518 0.871114 -114.266 0.514616 0.857421 1 0.5 0 1
70 1 47.872 39.705 0 47.872 118.971 0 -80.2758 -671.173 15.7233 -139.493 0.258199 -0.966092 1 0.5 0 1
71 1 57.8151 16.7349 0 137.081 16.7349 0 -385.41 -343.55 -21.7144 -16.4339 0.885698 0.464263 1 0.5 0 1
72 1 8.72726 60.9323 0 8.72726 60.9323 0 296.178 -915.937 55.4088 88.3004 0.540889 -0.841094 1 0.5 0 1
73 1 3.08679 14.1219 0 3.08679 14.1219 0 158.363 -601.264 -111.592 81.9515 0.279349 -0.96019 1 0.5 0 1
74 1 55.7137 19.294 0 55.7137 98.56 0 76.1827 -108.017 22.1354 -53.904 0.785049 -0.619434 1 0.5 0 1
75 1 75.4556 39.401 0 -3.81045 39.401 0 -29.7927 271.885 113.642 -176.967 0.0104417 -0.999945 1 0.5 0 1
76 1 18.6664 37.9158 0 -60.5996 37.9158 0 735.571 -270.371 -16.3125 64.0958 -0.112428 0.99366 1 0.5 0 1
77 1 76.9732 35.3473 0 -2.2928 35.3473 0 42.8453 122.771 -187.62 12.5366 0.87629 -0.481785 1 0.5 0 1
78 1 58.9423 71.9164 0 58.9423 71.9164 0 294.061 569.232 -70.4619 0.0985934 -0.510763 -0.859722 1 0.5 0 1
79 1 45.0832 56.5341 0 -34.1828 56.5341 0 637.711 -4.13136 89.849 -30.5293 0.93492 0.354857 1 0.5 0 1
80 1 77.4845 27.386 0 -1.78147 -51.88 0 -181.514 -150.91 56.7659 -73.17 0.150983 -0.988536 1 0.5 0 1
81 1 47.0066 36.7594 0 126.273 36.7594 0 -585.579 -123.529 142.837 27.0121 0.586216 0.810155 1 0.5 0 1
82 1 0.770704 39.8641 0 0.770704 39.8641 0 -48.6347 628.36 90.6573 -186.034 0.543161 0.839629 1 0.5 0 1
83 1 43.2238 42.149 0 122.49 121.415 0 -278.027 -388.398 -101.1 219.287 -0.793606 0.608432 1 0.5 0 1
84 1 77.0458 45.3383 0 -2.22024 45.3383 0 -413.211 -292.126 45.9641 -80.0747 0.292854 0.956157 1 0.5 0 1
85 1 55.8201 68.7558 0 -23.4459 -10.5102 0 21.8535 -548.669 -81.632 -53.1613 0.955433 0.295207 1 0.5 0 1
86 1 9.48523 42.3286 0 9.48523 42.3286 0 832.403 -376.263 -90.7447 -17.7648 -0.545259 -0.838268 1 0.5 0 1
87 1 8.10508 43.8472 0 8.10508 43.8472 0 688.5 255.822 38.563 -116.062 0.771527 0.636197 1 0.5 0 1
88 1 19.9374 39.0896 0 19.9374 39.0896 0 -102.122 -62.8805 19.4998 33.4323 -0.0326676 0.999466 1 0.5 0 1
89 1 22.6525 51.7318 0 22.6525 -27.5342 0 160.405 -687.874 18.9834 68.0662 -0.898012 0.439971 1 0.5 0 1
90 1 4.01705 39.0639 0 4.01705 39.0639 0 512.26 38.8333 100.971 -78.2815 -0.83266 0.553784 1 0.5 0 1
91 1 23.0461 59.4928 0 23.0461 -19.7732 0 -316.889 -243.71 19.6176 -62.5743 0.698922 0.715198 1 0.5 0 1
92 1 6.96168 58.9608 0 6.96168 58.9608 0 -100.65 447.162 -8.64792 8.85192 0.973523 0.228587 1 0.5 0 1
93 1 2.20369 48.536 0 2.20369 48.536 0 254.4 160.907 39.9496 -38.23 -0.874421 0.485169 1 0.5 0 1
94 1 69.6589 37.7376 0 69.6589 37.7376 0 -87.0925 -522.185 37.375 219.655 0.764983 -0.64405 1 0.5 0 1
95 1 66.8475 50.5548 0 66.8475 50.5548 0 297.947 -39.975 -10.9169 -120.526 0.601464 0.7989 1 0.5 0 1
96 1 53.5494 44.1147 0 53.5494 44.1147 0 -383.273 -358.687 176.353 -24.3636 0.640011 -0.768366 1 0.5 0 1
97 1 50.3207 69.4786 0 50.3207 -89.0534 0 -236.508 -142.954 -84.1857 -37.9967 -0.984377 -0.176074 1 0.5 0 1
98 1 17.7251 51.6784 0 17.7251 51.6784 0 529.276 24.5826 2.6966 -27.4345 -0.573879 0.81894 1 0.5 0 1
99 1 44.8591 41.6928 0 44.8591 -37.5732 0 -508.368 301.366 -5.31669 -75.8596 0.684175 0.729318 1 0.5 0 1
100 1 72.4502 44.8539 0 72.4502 44.8539 0 381.51 -120.481 -16.1407 80.0564 0.623118 -0.782128 1 0.5 0 1
101 1 49.9418 50.6094 0 49.9418 -28.6566 0 390.024 -904.848 40.6796 -20.8452 0.971122 0.238582 1 0.5 0 1
102 1 78.3752 43.88 0 -0.890803 43.88 0 68.8595 847.134 -33.2665 153.115 -0.914966 -0.403531 1 0.5 0 1
103 1 26.7806 49.8624 0 -131.751 129.128 0 196.32 -289.578 60.8156 -67.7164 0.392767 -0.919638 1 0.5 0 1
104 1 53.0734 45.8446 0 53.0734 125.111 0 -1100.83 38.1088 201.187 125.168 0.622267 0.782805 1 0.5 0 1
105 1 40.3672 35.7525 0 40.3672 35.7525 0 -2.48503 492.588 28.2249 -29.4221 0.92651 -0.37627 1 0.5 0 1
106 1 17.5592 37.5823 0 17.5592 -41.6837 0 -101.007 478.687 -47.6473 -24.2386 -0.974146 0.225921 1 0.5 0 1
107 1 61.0402 38.8256 0 61.0402 38.8256 0 271.626 81.7317 14.7952 245.587 0.0341451 -0.999417 1 0.5 0 1
108 1 78.5059 37.546 0 -0.760089 116.812 0 -295.34 -396.867 121.522 -139.515 0.439239 -0.89837 1 0.5 0 1
109 1 39.909 42.83 0 -39.357 122.096 0 364.368 -613.653 14.2634 26.9501 0.799207 0.601055 1 0.5 0 1
110 1 49.4621 33.0381 0 49.4621 33.0381 0 385.905 -417.973 -16.7012 -105.908 0.434616 0.900616 1 0.5 0 1
111 1 72.1867 15.1622 0 72.1867 94.4282 0 -317.666 -319.865 -12.8482 -5.12765 -0.678201 0.734877 1 0.5 0 1
112 1 12.0637 51.2613 0 12.0637 51.2613 0 443.438 858.244 31.6033 -47.5185 -0.673184 0.739475 1 0.5 0 1
113 1 8.96611 17.7249 0 -70.2999 96.9909 0 95.6237 -30.1291 -102.044 -55.6381 -0.464484 -0.885582 1 0.5 0 1
114 1 54.3011 57.2846 0 54.3011 57.2846 0 -415.59 -414.087 -28.8258 45.5444 0.961898 0.27341 1 0.5 0 1
115 1 42.8978 47.6869 0 42.8978 -31.5791 0 -349.393 296.356 68.7438 -69.4724 0.466136 0.884713 1 0.5 0 1
116 1 59.2669 70.0996 0 59.2669 -88.4324 0 -395.196 637.409 -240.861 -48.86 0.86501 -0.501754 1 0.5 0 1
117 1 66.3048 69.1915 0 66.3048 -10.0745 0 231.496 -687.485 -134.11 86.6168 0.406094 0.913831 1 0.5 0 1
118 1 54.2597 43.3968 0 54.2597 43.3968 0 160.3 136.523 -158.261 -124.376 -0.00753573 -0.999972 1 0.5 0 1
119 1 48.7599 63.3864 0 207.292 -15.8796 0 -290.959 9.42044 8.61499 -25.2484 0.87251 0.488596 1 0.5 0 1
120 1 45.4201 53.8502 0 124.686 -25.4158 0 115.131 -205.207 125.748 151.416 -0.990525 0.137336 1 0.5 0 1
121 1 60.5198 71.2388 0 -98.0122 -8.02715 0 -59.2387 85.4352 20.4829 210.104 0.490545 -0.871416 1 0.5 0 1
122 1 40.2236 11.0405 0 40.2236 90.3065 0 858.315 111.615 -0.648878 -99.9979 -0.00648878 -0.999979 1 0.5 0 1
123 1 72.5689 32.2696 0 -6.69708 32.2696 0 263.732 -279.214 101.096 -33.3972 0.233021 0.972472 1 0.5 0 1
124 1 14.2368 19.4252 0 -65.0292 -59.8408 0 -199.601 -485.672 -69.2916 -72.1019 -0.692916 -0.721019 1 0.5 0 1
125 1 63.7528 29.8321 0 63.7528 29.8321 0 77.4259 -279.527 -112.488 0.825826 -0.978342 0.206995 1 0.5 0 1
126 1 7.84223 36.6127 0 87.1082 115.879 0 63.8463 751.191 0.429719 -33.5057 0.965384 0.260833 1 0.5 0 1
127 1 56.4305 32.3644 0 56.4305 111.63 0 341.231 -308.372 -177.291 -123.968 0.998459 -0.0554854 1 0.5 0 1
128 1 0.668776 26.2783 0 -78.5972 26.2783 0 538.461 -555.609 -75.2913 61.1376 -0.557084 -0.830456 1 0.5 0 1
129 1 68.8656 58.1806 0 68.8656 -21.0854 0 -249.856 -118.375 106.686 67.0623 -0.312079 0.950056 1 0.5 0 1
130 1 74.4163 55.4645 0 74.4163 -23.8015 0 -15.5968 -181.974 -185.705 -91.1286 -0.98028 -0.197612 1 0.5 0 1
131 1 1.89437 68.6631 0 1.89437 68.6631 0 -435.868 152.582 228.036 -77.4746 -0.164216 -0.986424 1 0.5 0 1
132 1 58.6901 33.8242 0 -20.5759 113.09 0 52.2327 806.736 -54.5507 128.317 0.999231 0.0392056 1 0.5 0 1
133 1 15.2788 52.8595 0 15.2788 132.125 0 385.6 866.511 36.0704 -39.5874 -0.212131 -0.977241 1 0.5 0 1
134 1 10.6419 39.9195 0 10.6419 39.9195 0 117.176 -588.352 116.011 236.677 0.120162 -0.992754 1 0.5 0 1
135 1 24.5583 22.7801 0 24.5583 181.312 0 -350.647 -198.322 28.9775 68.2941 0.237904 0.971289 1 0.5 0 1
136 1 36.5155 53.1251 0 115.782 211.657 0 -201.039 -84.9913 14.1569 87.3413 0.356933 0.93413 1 0.5 0 1
137 1 39.9392 46.7285 0 119.205 46.7285 0 135.197 -125.812 -41.3917 118.784 0.993915 0.110147 1 0.5 0 1
138 1 49.5202 56.1365 0 -29.7458 -23.1295 0 -192.496 190.972 32.316 -2.97155 0.433757 0.90103 1 0.5 0 1
139 1 45.0004 45.4636 0 45.0004 -33.8024 0 422.135 207.077 6.25937 -1.60511 -0.561584 -0.82742 1 0.5 0 1
140 1 79.2628 11.2902 0 -0.0032494 11.2902 0 -169.567 -574.082 -66.9618 65.7045 -0.675427 0.737426 1 0.5 0 1
141 1 13.0239 59.6242 0 13.0239 59.6242 0 -103.053 -150.057 8.38682 93.2695 0.714947 -0.699179 1 0.5 0 1
142 1 19.6353 44.8721 0 -59.6307 124.138 0 750.118 549.205 -203.26 45.2352 -0.956235 0.2926 1 0.5 0 1
143 1 9.05807 37.8296 0 9.05807 117.096 0 -468.964 -663.475 71.6847 228.565 -0.364845 0.931068 1 0.5 0 1
144 1 54.5916 75.6996 0 54.5916 -3.56645 0 292.262 378.246 69.5527 45.5004 0.9832 -0.18253 1 0.5 0 1
145 1 18.1833 65.2495 0 97.4493 65.2495 0 -126.72 466.816 -9.48808 -89.9641 -0.42004 -0.907506 1 0.5 0 1
146 1 62.0065 64.5338 0 62.0065 -14.7322 0 -241.039 444.366 163.982 -63.4817 0.888624 -0.458636 1 0.5 0 1
147 1 1.95682 66.0213 0 81.2228 -13.2447 0 -289.844 -80.3428 -110.586 133.6 -0.949534 0.313663 1 0.5 0 1
148 1 28.278 2.64394 0 107.544 81.9099 0 -405.235 -527.955 -83.2532 55.3977 -0.832532 0.553977 1 0.5 0 1
149 1 69.9222 32.4183 0 69.9222 111.684 0 -753.569 198.395 165.635 44.9759 -0.299639 0.954053 1 0.5 0 1
150 1 66.083 37.6624 0 -13.183 37.6624 0 -1240.56 -837.802 150.782 -325.85 0.788752 0.614712 1 0.5 0 1
151 1 5.75773 57.6275 0 85.0237 -21.6385 0 197.733 24.3846 97.7214 -38.5927 -0.888554 -0.458772 1 0.5 0 1
152 1 65.6969 67.2323 0 65.6969 67.2323 0 242.909 -71.2263 79.618 132.438 0.120229 -0.992746 1 0.5 0 1
153 1 77.2905 58.9541 0 77.2905 58.9541 0 868.948 -427.223 172.761 17.6839 0.999062 -0.0432969 1 0.5 0 1
154 1 5.51851 53.198 0 5.51851 53.198 0 -506.081 330.979 122.766 106.963 -0.378188 0.925729 1 0.5 0 1
155 1 69.8388 72.1273 0 -88.6932 -7.13875 0 -653.365 -272.492 37.3635 89.4867 -0.39503 0.918668 1 0.5 0 1
156 1 74.458 49.089 0 74.458 49.089 0 -413.9 1008.57 120.807 -209.306 -0.8701 0.492876 1 0.5 0 1
157 1 3.64518 30.6814 0 3.64518 30.6814 0 -201.677 -136.909 -46.8052 112.315 0.892069 -0.4519 1 0.5 0 1
158 1 66.8143 40.5633 0 -12.4517 40.5633 0 400.957 -203.661 -209.158 208.706 0.150009 0.988685 1 0.5 0 1
159 1 4.08164 17.456 0 4.08164 96.722 0 487.262 -148.964 -22.7653 11.7323 -0.998998 0.044761 1 0.5 0 1
160 1 62.4576 13.1487 0 62.4576 13.1487 0 -109.529 -399.52 31.0571 -7.04999 0.999528 0.0307285 1 0.5 0 1
161 1 3.15973 13.0895 0 3.15973 -66.1765 0 -645.263 136.924 48.3027 -49.58 -0.444248 0.895904 1 0.5 0 1
162 1 8.55619 55.2682 0 8.55619 55.2682 0 612.042 130.278 -61.6191 51.4994 -0.122505 -0.992468 1 0.5 0 1
163 1 63.4745 51.3483 0 63.4745 51.3483 0 203.794 -712.686 151.672 -8.9579 0.770927 -0.636923 1 0.5 0 1
164 1 59.676 65.7123 0 59.676 -13.5537 0 -543.463 -554.565 119.748 114.167 0.892863 -0.450328 1 0.5 0 1
165 1 53.7235 18.9159 0 53.7235 98.1819 0 569.87 -179.915 -29.5551 55.5389 0.551082 -0.834451 1 0.5 0 1
166 1 10.8741 46.1276 0 10.8741 46.1276 0 -114.742 34.0167 -95.0166 153.795 0.975368 0.220585 1 0.5 0 1
167 1 63.0636 30.5327 0 63.0636 30.5327 0 532.021 -698.43 7.57847 37.6743 -0.546802 -0.837262 1 0.5 0 1
168 1 17.0302 64.1074 0 -62.2358 64.1074 0 679.173 -101.687 32.9082 50.699 0.987455 -0.157903 1 0.5 0 1
169 1 23.3447 54.2887 0 -55.9213 133.555 0 458.426 -29.116 -68.6679 77.5175 -0.837197 -0.546902 1 0.5 0 1
170 1 48.2418 10.5904 0 127.508 169.122 0 -211.679 597.236 17.8385 98.3961 0.178385 0.983961 1 0.5 0 1
171 1 62.8879 70.1401 0 142.154 -9.1259 0 -495.114 -400.24 -37.7336 9.89594 0.650809 0.759241 1 0.5 0 1
172 1 11.4087 60.3743 0 11.4087 -18.8917 0 -22.5132 -516.122 125.424 -157.337 0.918264 -0.395969 1 0.5 0 1
173 1 53.9112 19.9074 0 53.9112 -59.3586 0 282.751 352.237 -99.4787 16.3376 0.948352 0.317221 1 0.5 0 1
174 1 11.9774 54.0184 0 11.9774 54.0184 0 719.355 15.4691 -330.899 -14.0961 0.290047 0.957012 1 0.5 0 1
175 1 64.2471 78.5049 0 -15.0189 -0.761056 0 -302.251 174.897 74.615 18.8921 0.469866 0.882738 1 0.5 0 1
176 1 12.3731 52.211 0 12.3731 52.211 0 -408.852 -304.303 -72.8704 -16.5221 0.983477 -0.181031 1 0.5 0 1
177 1 8.43123 70.0343 0 8.43123 70.0343 0 81.2433 -132.914 -12.14 45.0614 0.784192 -0.620518 1 0.5 0 1
178 1 55.8345 30.4215 0 -23.4315 109.688 0 335.445 -27.2306 38.6548 -203.93 -0.42129 -0.906926 1 0.5 0 1
179 1 6.70685 61.1264 0 6.70685 -18.1396 0 393.823 -1037.22 115.327 20.1853 0.545294 0.838245 1 0.5 0 1
180 1 73.6029 42.4421 0 73.6029 42.4421 0 -717.224 -495.093 42.5836 6.08626 0.484505 -0.874788 1 0.5 0 1
181 1 23.9522 10.3115 0 103.218 10.3115 0 -50.7325 -706.564 80.6258 -59.1565 0.806258 -0.591565 1 0.5 0 1
182 1 4.74762 68.2061 0 -74.5184 68.2061 0 115.673 -269.872 -79.0712 110.731 -0.1145 -0.993423 1 0.5 0 1
183 1 59.3353 59.425 0 59.3353 -19.841 0 189.906 -830.701 279.939 98.8982 -0.982082 -0.188454 1 0.5 0 1
184 1 63.2585 44.0516 0 63.2585 44.0516 0 -114.485 -254.965 189.498 112.898 -0.313143 -0.949706 1 0.5 0 1
185 1 57.1741 17.5806 0 -22.0919 17.5806 0 -262.777 112.429 -60.2497 -9.82592 0.580495 0.814264 1 0.5 0 1
186 1 18.6301 44.5272 0 -60.6359 123.793 0 116.306 -271.748 -55.2309 15.2052 -0.689448 0.724335 1 0.5 0 1
187 1 54.8932 36.3762 0 -24.3728 115.642 0 -531.088 50.0908 109.734 77.5787 -0.334904 0.942252 1 0.5 0 1
188 1 63.3899 16.2433 0 142.656 95.5093 0 462.773 -366.886 -91.3766 -34.6295 0.659737 0.751496 1 0.5 0 1
189 1 28.3165 30.3876 0 28.3165 109.654 0 815.981 45.5723 98.4025 22.4127 0.973242 0.229782 1 0.5 0 1
190 1 22.7733 53.3693 0 -56.4927 53.3693 0 512.229 -300.675 -103.803 176.452 0.943483 -0.33142 1 0.5 0 1
191 1 12.1246 72.067 0 170.657 -7.19903 0 517.567 -64.2897 80.0921 -59.8771 0.800921 -0.598771 1 0.5 0 1
192 1 58.3723 39.0341 0 58.3723 39.0341 0 -432.164 -66.9264 -30.9175 160.536 -0.999907 0.0136152 1 0.5 0 1
193 1 75.6293 13.9526 0 -3.63673 93.2186 0 -468.018 -198.713 -21.9673 61.2404 0.462532 0.886603 1 0.5 0 1
194 1 9.11323 8.54115 0 9.11323 -70.7248 0 633.638 351.81 -25.0229 -67.5428 0.338152 -0.941091 1 0.5 0 1
195 1 52.7878 32.2505 0 52.7878 32.2505 0 -22.0549 83.7842 206.473 -181.497 0.982164 0.188027 1 0.5 0 1
196 1 58.4893 42.6806 0 58.4893 42.6806 0 -536.753 -654.687 -35.8599 25.7476 0.0567671 0.998387 1 0.5 0 1
197 1 72.692 61.7364 0 -6.57399 61.7364 0 136.296 -623.777 -91.4322 222.476 0.999935 0.0113602 1 0.5 0 1
198 1 73.6859 46.1099 0 73.6859 46.1099 0 514.849 34.5999 91.2925 119.307 0.260985 0.965343 1 0.5 0 1
199 1 66.3499 72.9333 0 -12.9161 -6.33267 0 7.62366 205.014 59.1944 20.3711 0.663523 -0.748156 1 0.5 0 1
200 1 0.342045 17.5827 0 79.608 96.8487 0 1017.82 298.812 -29.8866 100.382 0.0982239 0.995164 1 0.5 0 1
201 1 68.685 11.139 0 -10.581 90.405 0 -306.027 -435.264 121.501 -5.63252 0.798654 0.60179 1 0.5 0 1
202 1 57.3628 61.6823 0 -21.9032 -17.5837 0 -253.265 447.784 -34.5162 25.8126 0.742227 0.670148 1 0.5 0 1
203 1 17.0597 42.1465 0 -62.2063 121.413 0 1079.63 -397.724 -20.6717 25.3798 -0.781888 -0.623419 1 0.5 0 1
204 1 66.3575 64.6557 0 66.3575 -14.6103 0 -612.316 24.4317 -158.248 76.3721 0.739355 -0.673316 1 0.5 0 1
205 1 45.8025 26.2855 0 45.8025 105.551 0 -40.0861 479.015 -19.5682 82.4781 -0.0727689 0.997349 1 0.5 0 1
206 1 6.76857 69.0143 0 6.76857 -10.2517 0 64.6559 -464.215 -13.5032 -38.6767 -0.462968 0.886375 1 0.5 0 1
207 1 61.3726 65.2647 0 61.3726 65.2647 0 -674.247 -63.8326 -43.0302 -12.2409 0.95617 0.292813 1 0.5 0 1
208 1 8.07131 33.9305 0 8.07131 33.9305 0 472.768 -453.459 76.909 62.9776 0.198828 0.980034 1 0.5 0 1
209 1 52.4966 28.6861 0 52.4966 107.952 0 1206.03 -277.25 -87.9486 86.3042 0.495003 -0.868891 1 0.5 0 1
210 1 67.7105 63.2361 0 -11.5555 63.2361 0 101.453 674.853 -205.393 -165.597 0.74737 0.664408 1 0.5 0 1
211 1 60.6547 44.1542 0 60.6547 44.1542 0 433.861 30.7136 180.247 -1.135 0.484305 -0.874899 1 0.5 0 1
212 1 21.7575 48.8919 0 180.29 48.8919 0 -403.035 290.027 -94.2743 -131.968 0.465221 0.885195 1 0.5 0 1
213 1 71.1576 66.8698 0 71.1576 66.8698 0 77.4149 805.175 128.066 -126.561 0.509532 -0.860452 1 0.5 0 1
214 1 42.4078 28.3144 0 42.4078 28.3144 0 -220.078 759.27 11.9364 -55.6174 0.735624 -0.67739 1 0.5 0 1
215 1 55.9605 63.1857 0 55.9605 -16.0803 0 -274.529 -538.21 249.392 232.838 -0.253665 0.967292 1 0.5 0 1
216 1 16.812 47.7354 0 16.812 127.001 0 106.832 -667.071 93.5943 20.276 0.799064 0.601246 1 0.5 0 1
217 1 51.8132 69.2916 0 210.345 69.2916 0 -4.19959 -868.392 84.8217 52.9649 0.848217 0.529649 1 0.5 0 1
218 1 46.8437 52.4656 0 46.8437 52.4656 0 -275.914 431.978 85.1668 73.0147 -0.997476 -0.0710017 1 0.5 0 1
219 1 53.2842 46.8408 0 53.2842 46.8408 0 -162.403 -150.774 238.631 -62.0705 -0.951903 -0.306398 1 0.5 0 1
220 1 65.3104 68.933 0 65.3104 -89.599 0 199.301 -115.44 -51.4567 -49.0873 0.419638 -0.907692 1 0.5 0 1
221 1 43.2814 57.9078 0 -35.9846 137.174 0 286.765 392.441 -6.95334 -37.9013 -0.603832 -0.797111 1 0.5 0 1
222 1 42.8007 30.7577 0 42.8007 30.7577 0 -479.651 -269.784 161.884 127.306 0.396224 -0.918154 1 0.5 0 1
223 1 71.5733 38.2928 0 -7.69274 38.2928 0 -103.135 119.12 -96.6287 -55.5597 0.864791 -0.502131 1 0.5 0 1
224 1 77.6302 59.907 0 -1.63576 59.907 0 -505.418 704.775 -78.9568 -36.3368 0.323237 -0.946318 1 0.5 0 1
225 1 8.48099 15.5962 0 87.747 -63.6698 0 -592.358 -26.3629 -45.4702 -58.7596 -0.831693 -0.555236 1 0.5 0 1
226 1 17.6617 27.5742 0 -61.6043 -51.6918 0 22.2017 33.414 -13.5327 -75.3634 -0.233859 -0.972271 1 0.5 0 1
227 1 1.14721 38.1033 0 80.4132 38.1033 0 -953.453 567.871 210.741 29.8232 -0.20548 -0.978661 1 0.5 0 1
228 1 18.9629 62.4178 0 -60.3031 -16.8482 0 -189.288 51.2789 -65.3653 -83.063 -0.0598745 -0.998206 1 0.5 0 1
229 1 51.3515 42.6187 0 51.3515 42.6187 0 -672.912 478.168 95.7466 1.96993 0.607313 -0.794463 1 0.5 0 1
230 1 51.7504 40.9428 0 51.7504 120.209 0 297.871 -581.632 -137.987 -83.6743 -0.32086 0.947127 1 0.5 0 1
231 1 3.172 25.1917 0 3.172 104.458 0 -441.76 212.06 -75.6379 -58.6418 0.0431483 0.999069 1 0.5 0 1
232 1 46.9489 29.2307 0 46.9489 -50.0353 0 399.659 494.066 32.2525 13.7299 0.167949 0.985796 1 0.5 0 1
233 1 9.4793 47.6099 0 9.4793 47.6099 0 -1102.31 237.234 41.0358 7.79434 0.952794 -0.303617 1 0.5 0 1
234 1 66.1288 12.1772 0 66.1288 12.1772 0 -255.44 103.439 -40.6794 25.3276 -0.81787 -0.575403 1 0.5 0 1
235 1 30.5144 63.1228 0 30.5144 142.389 0 325.67 435.759 27.4151 96.1687 0.274151 0.961687 1 0.5 0 1
236 1 77.2253 6.40795 0 156.491 6.40795 0 -860.74 -507.329 94.4797 32.7656 0.944797 0.327656 1 0.5 0 1
237 1 73.2184 72.8553 0 73.2184 -6.41071 0 -454.939 8.13886 -11.1819 53.7485 0.975274 -0.220998 1 0.5 0 1
238 1 67.0912 22.7597 0 67.0912 102.026 0 -29.9968 293.569 -179.533 44.3303 0.0759941 0.997108 1 0.5 0 1
239 1 2.70884 44.1288 0 81.9748 44.1288 0 -40.5125 -242.732 -14.6788 59.5411 -0.350463 -0.936577 1 0.5 0 1
240 1 70.3582 18.282 0 70.3582 18.282 0 888.258 -743.284 -19.2888 -18.7286 0.701882 -0.712294 1 0.5 0 1
241 1 47.5957 38.7266 0 47.5957 38.7266 0 -1011.38 -558.837 82.5362 -0.754692 0.999941 0.0108696 1 0.5 0 1
242 1 10.9329 66.6766 0 90.1989 -12.5894 0 -771.325 534.512 -108.795 -309.843 0.91163 0.411011 1 0.5 0 1
243 1 35.408 66.6574 0 -123.124 66.6574 0 119.029 -246.436 -62.4451 73.8148 -0.971027 0.238968 1 0.5 0 1
244 1 58.948 25.9724 0 58.948 105.238 0 -157.604 -24.9331 -58.3332 -114.279 -0.593066 -0.805154 1 0.5 0 1
245 1 56.8719 53.2886 0 56.8719 53.2886 0 228.396 -8.049 -101.336 -53.467 -0.34588 -0.938279 1 0.5 0 1
246 1 48.9875 43.7937 0 48.9875 43.7937 0 -281.635 -230.656 -7.24866 -159.9 -0.119989 -0.992775 1 0.5 0 1
247 1 68.0803 55.2998 0 68.0803 -23.9662 0 -236.176 41.1079 143.701 55.565 -0.396688 -0.917953 1 0.5 0 1
248 1 0.101626 75.2978 0 0.101626 -3.96824 0 -263.969 -346.509 64.9819 -38.8343 -0.0670771 -0.997748 1 0.5 0 1
249 1 41.6547 46.3646 0 120.921 -32.9014 0 -638.118 56.4844 11.6873 46.1308 0.0440297 0.99903 1 0.5 0 1
250 1 58.9117 69.115 0 217.444 69.115 0 27.4396 -235.608 -13.6953 156.117 -0.201028 -0.979586 1 0.5 0 1
251 1 61.6821 16.7792 0 61.6821 175.311 0 20.8625 330.014 -68.5941 -48.1113 0.818752 0.574148 1 0.5 0 1
252 1 58.1512 23.116 0 58.1512 102.382 0 -181.114 548.398 27.3215 -100.263 0.158429 -0.98737 1 0.5 0 1
253 1 17.4886 50.693 0 17.4886 50.693 0 -297.5 362.512 -1.08981 -71.2208 0.0195111 -0.99981 1 0.5 0 1
254 1 46.7693 35.7937 0 46.7693 115.06 0 -517.477 738.023 74.285 -124.66 0.951801 -0.306716 1 0.5 0 1
255 1 0.327631 35.15 0 79.5936 114.416 0 497.879 158.162 69.3171 144.304 0.0900681 0.995936 1 0.5 0 1
256 1 68.5275 43.8485 0 -10.7385 43.8485 0 381.534 -184.912 61.374 -39.6758 -0.424113 0.905609 1 0.5 0 1
257 1 6.22204 40.6063 0 6.22204 119.872 0 -607.365 124.827 47.3791 -54.0924 -0.929366 -0.369159 1 0.5 0 1
258 1 5.8654 28.7327 0 5.8654 -50.5333 0 -133.251 -157.894 268.661 25.737 -0.672767 0.739854 1 0.5 0 1
259 1 13.786 69.1227 0 13.786 -10.1433 0 356.544 -185.293 -1.62273 8.1361 -0.365595 -0.930774 1 0.5 0 1
260 1 72.7795 71.7678 0 152.046 -7.49819 0 -584.064 -325.996 -8.21649 123.052 0.575086 0.818093 1 0.5 0 1
261 1 7.95374 17.4335 0 7.95374 17.4335 0 426.188 562.811 -3.66196 -21.2733 -0.669123 0.743152 1 0.5 0 1
262 1 57.647 62.6409 0 136.913 -16.6251 0 234.367 -391.415 -112.605 33.0113 -0.979146 -0.203158 1 0.5 0 1
263 1 2.28145 69.6164 0 -76.9845 -88.9156 0 -138.732 433.975 43.9372 -110.585 0.663237 -0.74841 1 0.5 0 1
264 1 15.902 34.9236 0 174.434 -44.3424 0 -393.153 -745.454 -67.9198 -5.17111 -0.983033 0.183426 1 0.5 0 1
265 1 51.5243 31.0519 0 51.5243 110.318 0 -9.98154 -194.121 -98.8588 -17.0006 -0.133768 0.991013 1 0.5 0 1
266 1 56.3909 55.0666 0 56.3909 55.0666 0 164.546 461.721 47.9098 -54.2142 0.381527 0.924358 1 0.5 0 1
267 1 73.1111 63.6797 0 -6.15485 -15.5863 0 -416.877 386.534 155.422 -138.949 -0.957194 -0.289448 1 0.5 0 1
268 1 68.1118 61.5435 0 68.1118 61.5435 0 472.574 -553.328 166.787 111.802 0.762969 -0.646435 1 0.5 0 1
269 1 57.5319 70.8463 0 136.798 70.8463 0 -127.047 664.174 -14.4514 -161.972 0.992396 -0.123085 1 0.5 0 1
270 1 6.60867 70.5215 0 6.60867 -8.74449 0 -113.878 -369.219 -24.6665 -19.6705 -0.450761 -0.892645 1 0.5 0 1
271 1 58.6795 10.4159 0 137.946 10.4159 0 1063.7 -244.883 85.9563 51.103 0.859563 0.51103 1 0.5 0 1
272 1 50.7839 40.6593 0 50.7839 40.6593 0 -38.1886 849.347 -27.0648 114.191 0.580457 0.814291 1 0.5 0 1
273 1 60.16 52.2807 0 60.16 52.2807 0 363.637 8.74663 20.3382 124.824 -0.936334 -0.351111 1 0.5 0 1
274 1 22.0993 44.1661 0 101.365 44.1661 0 -361.642 82.8886 7.50852 -123.381 -0.673509 0.739179 1 0.5 0 1
275 1 12.0212 66.7188 0 91.2872 -12.5472 0 -384.842 -429.299 62.5584 -9.32356 0.234911 -0.972017 1 0.5 0 1
276 1 57.8981 47.0827 0 57.8981 47.0827 0 -164.072 446.268 -64.8764 248.22 0.852069 0.523429 1 0.5 0 1
277 1 58.2323 69.921 0 58.2323 -9.34503 0 534.798 521.948 135.545 74.3314 0.879086 -0.476664 1 0.5 0 1
278 1 9.05204 34.2063 0 -70.214 113.472 0 -192.323 59.2976 26.6289 -57.6506 0.447733 -0.894167 1 0.5 0 1
279 1 16.3302 42.9157 0 95.5962 -115.616 0 -1074.9 -46.0978 1.49223 -36.9671 -0.740279 0.6723 1 0.5 0 1
280 1 2.70887 70.5396 0 -76.5571 -87.9924 0 373.42 -712.12 -158.834 -48.6995 -0.254657 -0.967031 1 0.5 0 1
281 1 69.5926 57.4691 0 69.5926 57.4691 0 -87.3838 -658.15 -267.718 -106.095 -0.7081 0.706113 1 0.5 0 1
282 1 48.2616 51.0206 0 48.2616 -28.2454 0 -576.81 390.647 246.439 248.436 0.988688 -0.149987 1 0.5 0 1
283 1 68.2868 32.862 0 -10.9792 112.128 0 -564.528 248.78 109.002 -140.282 -0.616085 -0.78768 1 0.5 0 1
284 1 4.60609 31.0161 0 4.60609 110.282 0 -511.917 -7.84587 -1.38418 -96.8134 0.301444 -0.953484 1 0.5 0 1