ITEM: TIMESTEP
320000
ITEM: NUMBER OF ATOMS
4000
ITEM: BOX BOUNDS pp pp pp
0.0000000000000000e+00 7.9266000000000005e+01
0.0000000000000000e+00 7.9266000000000005e+01
-5.0000000000000000e-01 5.0000000000000000e-01
ITEM: ATOMS id type x y z xu yu zu vx vy fx fy mux muy mu radius omegaz mass
1 1 1.52645 63.9981 0 80.7925 63.9981 0 -665.244 360.251 67.8243 166.58 -0.991907 -0.12697 1 0.5 0 1
2 1 60.0079 17.5571 0 60.0079 17.5571 0 706.163 -827.345 129.052 -0.806747 0.89705 0.441928 1 0.5 0 1
3 1 15.014 35.6209 0 15.014 -43.6451 0 -657.599 -144.483 -130.196 -19.5551 -0.80551 0.592582 1 0.5 0 1
4 1 31.0612 28.4838 0 31.0612 28.4838 0 -13.2213 -21.228 -2.24771 -96.1067 -0.272352 -0.962198 1 0.5 0 1
5 1 2.68243 31.381 0 2.68243 31.381 0 1065.97 -132.652 -48.9078 19.2961 -0.0527956 0.998605 1 0.5 0 1
6 1 69.8024 28.2124 0 -9.46364 28.2124 0 -589.716 -353.871 -49.2413 84.0863 -0.869221 -0.494423 1 0.5 0 1
7 1 66.7613 48.7833 0 66.7613 48.7833 0 -456.465 -376.166 144.324 -65.2894 0.173287 0.984871 1 0.5 0 1
8 1 15.6122 38.5072 0 15.6122 -40.7588 0 -468.434 -283.351 10.4634 85.1522 -0.694894 -0.719112 1 0.5 0 1
9 1 68.4149 26.0067 0 68.4149 26.0067 0 473.579 389.384 82.821 -0.559699 -0.374871 -0.927077 1 0.5 0 1
10 1 18.0799 54.1896 0 18.0799 54.1896 0 841.524 461.809 -36.2188 -77.7465 -0.286938 -0.957949 1 0.5 0 1
11 1 8.4653 3.68211 0 -70.8007 3.68211 0 -584.488 -323.58 12.6005 -23.4048 -0.808581 0.588385 1 0.5 0 1
12 1 1.06161 22.5516 0 80.3276 101.818 0 269.402 122.861 169.417 112.47 -0.718129 0.69591 1 0.5 0 1
13 1 75.8107 68.7629 0 75.8107 -10.5031 0 -320.101 -305.058 -34.0518 -119.056 -0.591203 -0.806523 1 0.5 0 1
14 1 36.8793 40.5578 0 -121.653 40.5578 0 -47.3617 -344.689 29.8574 44.522 -0.633837 0.773467 1 0.5 0 1
15 1 10.2854 34.0378 0 10.2854 34.0378 0 -588.079 252.358 17.7765 135.18 -0.997337 -0.0729328 1 0.5 0 1
16 1 15.98 48.9145 0 -63.286 -30.3515 0 54.2674 -800.385 -65.5466 100.066 -0.475753 0.879579 1 0.5 0 1
17 1 39.7273 41.4879 0 118.993 120.754 0 -79.8692 -366.268 -4.64517 -18.4915 0.508379 0.861134 1 0.5 0 1
18 1 33.0816 49.425 0 33.0816 49.425 0 223.468 -632.82 20.8346 -89.4562 0.483805 -0.875176 1 0.5 0 1
19 1 3.88135 40.8616 0 3.88135 40.8616 0 379.714 432.71 -47.1368 -62.3364 0.998313 -0.0580549 1 0.5 0 1
20 1 13.7853 56.5343 0 13.7853 56.5343 0 183.829 -155.447 66.2942 28.3372 0.728395 -0.685157 1 0.5 0 1
21 1 3.84356 28.1204 0 3.84356 28.1204 0 -12.7926 -453.7 36.5556 -127.07 -0.831782 0.555103 1 0.5 0 1
22 1 2.59225 21.1546 0 81.8582 21.1546 0 -615.546 -280.881 -74.8314 119.012 -0.99761 0.0690924 1 0.5 0 1
23 1 33.7973 43.5305 0 113.063 43.5305 0 -771.175 -121.134 80.0788 70.8435 0.614648 0.788801 1 0.5 0 1
24 1 65.7189 56.6199 0 65.7189 -22.6461 0 273.074 133.637 -193.714 187.397 0.999663 0.0259516 1 0.5 0 1
25 1 47.932 29.4993 0 -31.334 -49.7667 0 125.947 340.586 -154.104 132.117 0.644109 -0.764933 1 0.5 0 1
26 1 52.0814 56.412 0 52.0814 -102.12 0 -11.5731 -263.426 -8.51339 -27.3853 0.945656 -0.32517 1 0.5 0 1
27 1 74.8478 17.2189 0 -4.41816 96.4849 0 -494.614 30.0387 126.127 -382.635 -0.993899 0.110296 1 0.5 0 1
28 1 56.8856 15.1449 0 56.8856 94.4109 0 -421.586 -399.598 88.3747 -57.5111 0.996372 0.0851021 1 0.5 0 1
29 1 73.6582 37.5257 0 -5.60775 37.5257 0 -187.057 515.719 -21.105 56.0927 -0.725171 0.688569 1 0.5 0 1
30 1 63.7888 14.0514 0 63.7888 93.3174 0 -568.538 -793.08 122.783 161.494 0.45533 0.890323 1 0.5 0 1
31 1 74.7537 26.143 0 -4.51232 26.143 0 848.991 495.426 -67.35 115.662 -0.737545 0.675299 1 0.5 0 1
32 1 78.964 13.7193 0 -0.302002 13.7193 0 479.985 59.8255 27.2427 -5.44097 -0.0473814 0.998877 1 0.5 0 1
33 1 64.2074 57.9713 0 64.2074 -21.2947 0 8.03228 -500.226 -163.095 -64.5496 0.248503 -0.968631 1 0.5 0 1
34 1 5.49267 44.1094 0 84.7587 44.1094 0 233.82 -389.616 -109.231 146.929 0.869379 0.494145 1 0.5 0 1
35 1 38.1933 42.7042 0 -41.0727 42.7042 0 -1017.94 -479.333 -19.3914 42.4486 0.951374 -0.308039 1 0.5 0 1
36 1 59.5162 57.8097 0 59.5162 -21.4563 0 -444.387 475.041 35.0646 -71.1158 0.747343 0.664439 1 0.5 0 1
37 1 69.4493 41.5052 0 69.4493 41.5052 0 -426.864 215.168 126.002 6.10845 -0.981128 -0.193358 1 0.5 0 1
38 1 69.7029 11.4129 0 148.969 90.6789 0 430.182 1213.76 110.385 -0.675923 0.846707 0.532059 1 0.5 0 1
39 1 10.9339 22.9981 0 90.1999 -56.2679 0 -99.6004 -570.369 55.4573 42.3719 -0.669019 0.743245 1 0.5 0 1
40 1 54.8974 18.2665 0 -24.3686 97.5325 0 -5.70032 -570.383 60.9313 41.7248 0.477018 0.878894 1 0.5 0 1
41 1 68.2598 52.0434 0 68.2598 52.0434 0 -583.889 -107.573 178.875 -132.935 0.751944 0.659227 1 0.5 0 1
42 1 74.3261 59.3092 0 -4.93987 59.3092 0 -139.819 -816.916 -145.617 216.667 -0.269761 -0.962927 1 0.5 0 1
43 1 0.641235 15.0016 0 -78.6248 94.2676 0 -178.128 205.737 12.7527 -107.484 -0.560388 0.82823 1 0.5 0 1
44 1 64.8389 20.1583 0 64.8389 99.4243 0 -406.898 301.876 -67.1636 -95.3551 -0.58361 0.812034 1 0.5 0 1
45 1 25.1107 15.3973 0 25.1107 -63.8687 0 173.863 104.876 -48.0957 16.1792 0.218345 -0.975872 1 0.5 0 1
46 1 6.47123 40.9217 0 6.47123 40.9217 0 -136.02 -698.276 37.4116 58.4734 -0.25853 0.966003 1 0.5 0 1
47 1 57.5602 60.9119 0 57.5602 -18.3541 0 -706.786 -254.268 73.8126 23.386 -0.564311 -0.825562 1 0.5 0 1
48 1 11.141 46.1799 0 11.141 46.1799 0 282.216 433.133 -133.258 49.1007 -0.990473 0.137709 1 0.5 0 1
49 1 46.9939 19.05 0 46.9939 98.316 0 1301.58 1.10578 -3.84021 -28.8822 -0.88382 0.467828 1 0.5 0 1
50 1 15.4101 10.3112 0 15.4101 10.3112 0 -219.224 -1001.59 -62.1984 -78.303 -0.621984 -0.78303 1 0.5 0 1
51 1 21.607 9.37626 0 -57.659 9.37626 0 -502.396 -89.1183 -99.8503 -5.4696 -0.998503 -0.054696 1 0.5 0 1
52 1 3.79635 32.72 0 83.0624 32.72 0 126.583 -195.451 -27.2447 -21.3925 -0.804269 0.594265 1 0.5 0 1
53 1 10.8342 54.4187 0 10.8342 133.685 0 -938.519 1003.87 -160.02 22.2572 -0.263715 0.964601 1 0.5 0 1
54 1 53.0144 28.8676 0 53.0144 28.8676 0 376.574 -596.264 229.562 62.2475 0.00956167 0.999954 1 0.5 0 1
55 1 19.5088 42.6968 0 98.7748 121.963 0 -214.784 423.664 6.02146 14.3824 -0.734021 0.679126 1 0.5 0 1
56 1 38.8461 38.1588 0 38.8461 38.1588 0 -275.849 776.166 26.2845 -31.9362 0.827401 -0.561612 1 0.5 0 1
57 1 14.5914 27.8126 0 14.5914 107.079 0 -96.7895 -808.693 -44.7537 -21.7302 -0.951184 -0.308625 1 0.5 0 1
58 1 67.639 26.6731 0 -11.627 26.6731 0 306.486 194.42 117.549 -4.54326 -0.469744 -0.882803 1 0.5 0 1
59 1 51.9741 33.0165 0 51.9741 33.0165 0 -234.398 -174.998 -60.5146 207.671 -0.999879 0.0155821 1 0.5 0 1
60 1 56.0931 39.8177 0 56.0931 39.8177 0 -435.516 -127.432 105.044 -143.894 -0.575059 -0.818112 1 0.5 0 1
61 1 58.7335 43.2975 0 58.7335 43.2975 0 -574.36 -254.839 14.0559 -26.2321 0.471719 0.881749 1 0.5 0 1
62 1 56.7363 19.1862 0 136.002 19.1862 0 -696.334 -101.774 74.7208 16.8303 0.257086 0.966389 1 0.5 0 1
63 1 12.462 59.8416 0 -66.804 -19.4244 0 494.074 388.575 -31.8586 20.8769 0.999356 -0.0358854 1 0.5 0 1
64 1 47.4279 27.572 0 126.694 106.838 0 -104.019 -300.059 144.137 -101.982 -0.227534 0.97377 1 0.5 0 1
65 1 16.1946 79.1657 0 174.727 79.1657 0 -198.876 -501.48 88.5847 46.3978 0.885847 0.463978 1 0.5 0 1
66 1 12.5953 44.8233 0 91.8613 124.089 0 353.708 683.143 32.542 97.8486 0.306991 0.951712 1 0.5 0 1
67 1 53.9645 41.7205 0 53.9645 41.7205 0 -225.807 -47.9451 51.8924 -77.8061 -0.282832 -0.959169 1 0.5 0 1
68 1 14.3304 40.8613 0 14.3304 40.8613 0 -228.015 -582.629 157.35 -327.853 -0.987606 0.156955 1 0.5 0 1
69 1 50.3041 20.2376 0 50.3041 20.2376 0 117.334 -626.54 -4.87707 -22.9778 0.994923 0.100639 1 0.5 0 1
70 1 48.3904 37.0724 0 48.3904 116.338 0 122.794 -38.7458 19.7463 -72.8221 0.9299 -0.367811 1 0.5 0 1
71 1 6.76712 13.9292 0 86.0331 13.9292 0 -292.037 -422.293 93.1094 -36.478 0.931094 -0.36478 1 0.5 0 1
72 1 3.23393 56.4042 0 3.23393 56.4042 0 614.452 70.9562 -113.435 -24.4673 -0.713828 -0.700321 1 0.5 0 1
73 1 77.2745 10.5726 0 -1.99148 10.5726 0 770.977 -636.549 16.5617 83.1527 -0.851916 0.523678 1 0.5 0 1
74 1 57.0863 21.1896 0 57.0863 100.456 0 -100.863 -17.9956 -85.9713 -22.1022 0.502576 0.864533 1 0.5 0 1
75 1 75.3218 37.215 0 -3.94415 37.215 0 -546.877 532.907 221.02 -29.2335 0.467515 0.883985 1 0.5 0 1
76 1 48.7153 24.2863 0 -30.5507 24.2863 0 76.9178 153.901 17.6283 132.384 0.797986 0.602675 1 0.5 0 1
77 1 78.0008 33.6202 0 -1.26516 33.6202 0 224.208 103.542 -67.5505 194.581 0.998296 -0.0583601 1 0.5 0 1
78 1 58.8726 16.2527 0 58.8726 95.5187 0 -843.985 337.059 114.231 32.5554 0.361388 0.932416 1 0.5 0 1
79 1 47.7145 59.8164 0 -31.5515 59.8164 0 -319.579 -478.216 -22.3388 -35.7835 0.0645743 -0.997913 1 0.5 0 1
80 1 0.874076 26.1169 0 0.874076 -53.1491 0 699.382 170.45 88.5369 81.4088 0.965446 0.260603 1 0.5 0 1
81 1 47.7756 34.1142 0 127.042 34.1142 0 -162.447 -743.492 150.164 -85.8514 -0.101518 -0.994834 1 0.5 0 1
82 1 0.554065 37.8751 0 0.554065 37.8751 0 -1002.93 -393.284 165.533 84.4936 0.14577 0.989319 1 0.5 0 1
83 1 40.7711 41.8147 0 120.037 121.081 0 350.463 -1.2675 23.2167 59.3751 0.328991 0.944333 1 0.5 0 1
84 1 75.9016 43.7376 0 -3.36441 43.7376 0 -265.903 -22.2774 133.257 -142.183 -0.959907 0.280318 1 0.5 0 1
85 1 59.7542 13.7186 0 59.7542 13.7186 0 -853.603 35.014 6.7619 99.8637 -0.730683 0.682717 1 0.5 0 1
86 1 10.4773 39.5751 0 10.4773 39.5751 0 123.596 -346.396 226.909 -78.7567 -0.875655 -0.482936 1 0.5 0 1
87 1 10.9856 41.5089 0 10.9856 41.5089 0 -588.707 -127.348 -130.758 -18.5809 -0.952573 -0.304311 1 0.5 0 1
88 1 16.4796 61.2883 0 16.4796 -17.9777 0 -263.72 446.144 -26.1362 -21.8173 -0.61232 -0.79061 1 0.5 0 1
89 1 46.5171 11.3575 0 46.5171 11.3575 0 -5.47657 401.135 7.3875 -99.7268 0.073875 -0.997268 1 0.5 0 1
90 1 3.92259 37.2551 0 3.92259 37.2551 0 -475.339 87.7609 -11.0948 -39.0436 -0.631595 0.775299 1 0.5 0 1
91 1 14.8795 57.9246 0 14.8795 -21.3414 0 265.96 -114.353 114.664 -59.1614 -0.462391 -0.886676 1 0.5 0 1
92 1 2.36408 53.6006 0 2.36408 53.6006 0 -28.7344 321.618 -148.934 -90.417 -0.534581 -0.845117 1 0.5 0 1
93 1 1.13141 44.3395 0 1.13141 44.3395 0 495.416 -77.8703 -136.919 8.89714 0.450527 0.892763 1 0.5 0 1
94 1 69.6922 35.2207 0 69.6922 35.2207 0 61.0132 434.502 -217.324 281.292 0.765961 -0.642887 1 0.5 0 1
95 1 66.5613 47.764 0 66.5613 47.764 0 -343.861 -336.542 33.9204 43.7541 -0.799467 -0.60071 1 0.5 0 1
96 1 53.7068 40.7522 0 53.7068 40.7522 0 -342.029 -373.739 76.5283 -15.6561 -0.296994 -0.954879 1 0.5 0 1
97 1 34.6758 40.8697 0 34.6758 -38.3963 0 -41.5632 -167.972 47.1697 -88.1761 0.471697 -0.881761 1 0.5 0 1
98 1 20.887 50.1932 0 20.887 50.1932 0 -113.258 -472.223 10.0608 -50.4793 -0.998579 0.0532948 1 0.5 0 1
99 1 42.9945 39.7974 0 42.9945 -39.4686 0 -203.019 398.562 54.0918 1.9529 0.862442 0.506156 1 0.5 0 1
100 1 72.2024 42.4886 0 72.2024 42.4886 0 640.886 -420.123 79.8613 149.763 -0.666329 -0.745658 1 0.5 0 1
101 1 49.6041 45.6188 0 49.6041 -33.6472 0 -244.738 -319.683 186.348 264.161 -0.0208678 0.999782 1 0.5 0 1
102 1 78.0882 41.7207 0 -1.1778 41.7207 0 159.392 -669.311 -82.5735 114.144 -0.0305296 -0.999534 1 0.5 0 1
103 1 2.56746 79.0956 0 -76.6985 158.362 0 -158.837 -413.058 -71.0159 -70.4041 -0.710159 -0.704041 1 0.5 0 1
104 1 53.2718 42.3664 0 53.2718 121.632 0 -292.089 110.163 -66.1654 158.316 0.807779 0.589485 1 0.5 0 1
105 1 5.72683 5.19705 0 5.72683 5.19705 0 -228.88 -99.7952 52.1931 -72.5316 0.889766 -0.456416 1 0.5 0 1
106 1 20.1932 74.4781 0 20.1932 -4.7879 0 -861.118 -973.423 87.8785 -45.7775 0.92035 -0.391095 1 0.5 0 1
107 1 61.4968 36.2405 0 61.4968 36.2405 0 -270.687 -567.612 -131.139 -134.097 -0.648788 -0.760969 1 0.5 0 1
108 1 78.4571 35.5823 0 -0.808897 114.848 0 -122.52 312.403 -249.716 72.844 0.853285 -0.521445 1 0.5 0 1
109 1 11.0974 21.5794 0 -68.1686 100.845 0 -506.29 195.106 -51.7342 26.2122 0.0436724 0.999046 1 0.5 0 1
110 1 50.5369 29.7311 0 50.5369 29.7311 0 -285.971 402.958 167.339 -110.685 -0.828921 0.559366 1 0.5 0 1
111 1 73.2446 12.9633 0 73.2446 92.2293 0 -184.662 -692.88 191.374 59.9439 -0.0775055 0.996992 1 0.5 0 1
112 1 9.85827 48.4697 0 9.85827 48.4697 0 -375.49 23.2665 168.237 102.096 0.994021 -0.109188 1 0.5 0 1
113 1 13.8173 28.6867 0 -65.4487 107.953 0 102.986 -493.005 11.0649 134.622 -0.840643 0.54159 1 0.5 0 1
114 1 54.0055 53.3807 0 54.0055 53.3807 0 -1367.61 295.92 294.521 -201.616 0.923436 -0.383752 1 0.5 0 1
115 1 40.3026 48.0632 0 40.3026 -31.2028 0 801.088 552.432 -3.66689 24.9186 -0.140398 -0.990095 1 0.5 0 1
116 1 33.4651 32.689 0 33.4651 -46.577 0 -381.705 -107.838 27.5052 -88.3034 0.843098 -0.53776 1 0.5 0 1
117 1 53.9097 76.2726 0 53.9097 -2.99335 0 274.155 417.353 63.395 -77.3374 0.63395 -0.773374 1 0.5 0 1
118 1 54.4353 40.1177 0 54.4353 40.1177 0 329.88 -113.091 -113.771 159.171 0.9023 -0.43111 1 0.5 0 1
119 1 57.1066 16.1882 0 136.373 16.1882 0 534.33 -813.005 -52.8227 57.1475 0.594326 -0.804224 1 0.5 0 1
120 1 46.1613 49.9299 0 125.427 -29.3361 0 126.686 168.526 63.3145 1.21633 -0.184807 -0.982775 1 0.5 0 1
121 1 24.7782 72.2257 0 -133.754 -7.04033 0 127.339 -423.956 -52.3745 85.1875 -0.523745 0.851875 1 0.5 0 1
122 1 22.5694 4.67044 0 22.5694 83.9364 0 -102.589 -233.144 -31.3512 -25.6749 -0.870979 0.491321 1 0.5 0 1
123 1 74.7307 30.6595 0 -4.53527 30.6595 0 129.03 -64.4654 3.81104 59.8318 -0.998946 -0.0459073 1 0.5 0 1
124 1 67.745 71.1913 0 -11.521 -8.0747 0 443.033 34.1186 -67.1683 -58.7344 -0.946522 -0.322639 1 0.5 0 1
125 1 65.9241 27.0202 0 65.9241 27.0202 0 517.387 -213.383 103.19 135.246 -0.48565 -0.874153 1 0.5 0 1
126 1 8.59881 34.4226 0 87.8648 113.689 0 -470.563 -81.8879 137.77 -140.7 0.999856 -0.0169992 1 0.5 0 1
127 1 57.5497 29.6467 0 57.5497 108.913 0 31.7598 1340.52 -101.057 -56.99 0.983991 0.178218 1 0.5 0 1
128 1 3.3472 25.1132 0 -75.9188 25.1132 0 -128.049 355.333 69.3565 123.606 -0.940144 0.340776 1 0.5 0 1
129 1 67.3615 56.2362 0 67.3615 -23.0298 0 139.271 -754.659 -32.32 61.3198 -0.0846992 -0.996407 1 0.5 0 1
130 1 73.3533 55.4997 0 73.3533 -23.7663 0 523.164 503.705 -5.63168 -60.7523 0.496572 -0.867995 1 0.5 0 1
131 1 5.48804 71.1411 0 5.48804 71.1411 0 459.286 89.6873 94.0523 9.07273 0.0699257 -0.997552 1 0.5 0 1
132 1 59.6243 31.2214 0 -19.6417 110.487 0 -510.954 531.912 68.3554 -54.0678 0.836963 0.547259 1 0.5 0 1
133 1 18.4046 47.7066 0 18.4046 126.973 0 -392.43 -72.2243 110.838 39.9909 -0.569189 -0.822206 1 0.5 0 1
134 1 11.7912 37.276 0 11.7912 37.276 0 9.7804 279.93 -116.441 28.4693 -0.774718 -0.632307 1 0.5 0 1
135 1 14.1272 52.972 0 14.1272 132.238 0 377.643 437.879 -14.9908 118.595 -0.389388 0.921074 1 0.5 0 1
136 1 14.7389 79.3022 0 94.0049 79.3022 0 -599.311 587.091 -13.4804 -65.2742 0.685099 0.72845 1 0.5 0 1
137 1 47.8677 74.0108 0 127.134 74.0108 0 280.999 -328.275 -32.0998 -94.708 -0.320998 -0.94708 1 0.5 0 1
138 1 48.0958 50.5235 0 -31.1702 -28.7425 0 -329.45 840.179 93.0944 43.1955 0.932433 0.361344 1 0.5 0 1
139 1 42.7369 42.4705 0 42.7369 -36.7955 0 -427.481 47.5348 -26.3056 -53.3277 0.560922 -0.827869 1 0.5 0 1
140 1 77.0435 9.58807 0 -2.22252 9.58807 0 586.461 175.604 -65.7492 13.1962 -0.670403 0.741997 1 0.5 0 1
141 1 8.48679 56.2899 0 8.48679 56.2899 0 -35.9998 296.492 -40.116 -43.6222 0.84796 0.53006 1 0.5 0 1
142 1 25.1405 71.0933 0 -54.1255 71.0933 0 183.411 1252.93 -68.673 72.6912 -0.68673 0.726912 1 0.5 0 1
143 1 10.5024 35.0274 0 10.5024 114.293 0 -36.3848 -500.313 10.5278 -250.886 0.964974 -0.262345 1 0.5 0 1
144 1 31.8604 74.3121 0 31.8604 -4.95394 0 583.188 -206.516 50.3812 86.3813 0.503812 0.863813 1 0.5 0 1
145 1 9.48501 67.3727 0 88.751 67.3727 0 -289.723 -873.105 -45.3917 94.1737 0.00750228 -0.999972 1 0.5 0 1
146 1 59.88 62.2928 0 59.88 -16.9732 0 -244.578 -355.037 159.347 277.655 0.621024 -0.783792 1 0.5 0 1
147 1 77.7974 69.4353 0 77.7974 -9.83073 0 125.849 427.845 50.908 115.925 -0.216408 -0.976303 1 0.5 0 1
148 1 51.3256 57.1181 0 130.592 57.1181 0 845.414 -326.416 -97.1297 82.0362 0.0599871 0.998199 1 0.5 0 1
149 1 71.8845 29.7768 0 71.8845 109.043 0 696.86 237.789 89.7086 -123.312 -0.542922 0.839783 1 0.5 0 1
150 1 66.6222 34.52 0 -12.6438 34.52 0 1100.62 174.577 187.115 -262.435 0.551138 0.834414 1 0.5 0 1
151 1 2.25858 56.1329 0 81.5246 -23.1331 0 -275.496 -1084.72 169.554 202.928 0.751307 -0.659953 1 0.5 0 1
152 1 62.4294 64.7793 0 62.4294 64.7793 0 532.735 573.61 -14.0197 -147.558 0.531323 -0.847169 1 0.5 0 1
153 1 76.0273 58.9766 0 76.0273 58.9766 0 -1028.65 638.525 -83.2064 -79.2458 0.918469 -0.395493 1 0.5 0 1
154 1 1.94851 48.173 0 1.94851 48.173 0 551.537 103.218 78.0795 31.698 -0.82755 0.561392 1 0.5 0 1
155 1 68.8189 65.697 0 -89.7131 -13.569 0 575.621 -898.987 181.761 8.66838 0.608958 -0.793203 1 0.5 0 1
156 1 73.2702 47.3678 0 73.2702 47.3678 0 -196.597 163.644 23.2945 70.9875 -0.991927 -0.126814 1 0.5 0 1
157 1 5.75581 28.7869 0 5.75581 28.7869 0 -491.724 -186.695 86.2413 22.3246 0.83846 -0.544963 1 0.5 0 1
158 1 66.971 37.9937 0 -12.295 37.9937 0 -14.5433 -431.546 46.4423 -383.079 -0.708375 -0.705837 1 0.5 0 1
159 1 10.0959 0.515721 0 10.0959 79.7817 0 -184.834 16.0573 -12.5564 3.48674 -0.808196 0.588913 1 0.5 0 1
160 1 5.42809 70.1067 0 5.42809 -9.15927 0 436.863 -842.672 -65.8818 -60.5611 0.527504 -0.849552 1 0.5 0 1
161 1 43.1735 33.0458 0 43.1735 -46.2202 0 506.277 -388.959 40.4199 17.6409 0.8312 -0.555974 1 0.5 0 1
162 1 5.18986 51.0263 0 5.18986 51.0263 0 88.1496 -356.878 -169.494 119.291 -0.196069 -0.98059 1 0.5 0 1
163 1 63.3418 48.4009 0 63.3418 48.4009 0 -171.785 -498.497 121.352 -5.52756 0.82845 0.560064 1 0.5 0 1
164 1 56.4377 63.3956 0 56.4377 -15.8704 0 538.549 86.8404 -46.686 -56.9672 -0.291415 -0.956597 1 0.5 0 1
165 1 15.6693 27.7379 0 15.6693 27.7379 0 -224.809 392.204 -8.52706 21.3613 0.316686 0.94853 1 0.5 0 1
166 1 9.76359 43.8758 0 9.76359 43.8758 0 856.695 115.665 27.8778 -224.728 -0.0532141 0.998583 1 0.5 0 1
167 1 65.1609 27.7098 0 65.1609 27.7098 0 470.861 403.36 164.883 -101.327 0.15226 -0.988341 1 0.5 0 1
168 1 14.1702 25.3143 0 -65.0958 104.58 0 -583.763 -204.278 147.746 14.2371 -0.995707 0.0925647 1 0.5 0 1
169 1 24.2478 63.3337 0 -55.0182 142.6 0 193.781 -411.067 -99.1826 -71.7743 -0.697341 -0.71674 1 0.5 0 1
170 1 14.8884 52.332 0 94.1544 131.598 0 424.619 48.35 95.0495 17.202 -0.661607 -0.74985 1 0.5 0 1
171 1 57.6226 68.3852 0 136.889 -10.8808 0 -234.067 66.0829 98.694 3.12895 0.722095 -0.691794 1 0.5 0 1
172 1 6.81446 56.5892 0 6.81446 -22.6768 0 1206.44 -323.103 -196.191 -65.1497 -0.0486094 -0.998818 1 0.5 0 1
173 1 28.7194 30.4759 0 28.7194 -48.7901 0 385.746 283.142 55.6746 -83.0683 0.556746 -0.830683 1 0.5 0 1
174 1 8.50459 50.7144 0 8.50459 50.7144 0 457.869 704.071 -104.458 30.0701 -0.608357 0.793664 1 0.5 0 1
175 1 53.1745 61.4256 0 -26.0915 -17.8404 0 -184.843 -342.298 -31.9106 -69.6255 -0.134312 -0.990939 1 0.5 0 1
176 1 10.0834 49.4825 0 10.0834 49.4825 0 -83.5784 186.252 -320.822 13.4902 0.98628 0.165079 1 0.5 0 1
177 1 3.82689 66.6752 0 3.82689 66.6752 0 176.131 -47.8204 -77.1425 113.722 -0.824006 0.566581 1 0.5 0 1
178 1 57.2074 27.7073 0 -22.0586 106.973 0 -503.538 -727.66 9.77968 12.2365 -0.69423 0.719753 1 0.5 0 1
179 1 3.30298 53.874 0 3.30298 -25.392 0 -424.838 905.609 177.73 -86.0737 0.987174 -0.15965 1 0.5 0 1
180 1 73.4215 40.1981 0 73.4215 40.1981 0 -43.3517 -713.258 37.1959 -35.9719 -0.165632 0.986188 1 0.5 0 1
181 1 63.0121 14.7355 0 63.0121 14.7355 0 -21.3244 -40.2294 -23.3151 62.2287 0.429073 0.90327 1 0.5 0 1
182 1 14.8388 63.7679 0 -64.4272 63.7679 0 -987.33 -197.68 46.8871 -14.578 -0.909088 -0.416605 1 0.5 0 1
183 1 58.937 55.905 0 58.937 -23.361 0 582.917 223.303 -35.1453 -7.26682 -0.627729 0.778432 1 0.5 0 1
184 1 63.4475 41.2837 0 63.4475 41.2837 0 24.2799 -120.812 -116.839 46.1902 0.748959 -0.662616 1 0.5 0 1
185 1 66.8318 5.5787 0 -12.4342 5.5787 0 -737.966 340.719 -95.3914 -61.2881 -0.674746 0.73805 1 0.5 0 1
186 1 64.2183 8.51348 0 -15.0477 87.7795 0 -485.499 -350.658 -64.1923 61.4074 -0.675393 0.737458 1 0.5 0 1
187 1 55.5994 33.4466 0 -23.6666 112.713 0 943.336 546.602 -170.409 15.9952 -0.624301 0.781184 1 0.5 0 1
188 1 62.8117 13.7103 0 142.078 92.9763 0 561.308 -176.492 -59.9744 -61.1115 0.685757 0.727831 1 0.5 0 1
189 1 4.45715 71.0786 0 4.45715 71.0786 0 934.053 259.883 -198.532 -8.45161 -0.999685 0.0251055 1 0.5 0 1
190 1 19.5578 52.718 0 -59.7082 52.718 0 -772.131 17.6985 -27.4114 -58.8094 -0.953617 0.301024 1 0.5 0 1
191 1 66.0042 16.7096 0 145.27 16.7096 0 -220.652 -436.373 81.2927 -58.7684 -0.0335882 -0.999436 1 0.5 0 1
192 1 58.859 36.3055 0 58.859 36.3055 0 -95.7867 -151.187 -101.532 -284.944 0.795312 0.6062 1 0.5 0 1
193 1 73.3005 9.21064 0 -5.96546 88.4766 0 -463.157 -263.194 -53.3631 27.9788 -0.0143032 0.999898 1 0.5 0 1
194 1 24.9447 61.967 0 24.9447 -17.299 0 804.122 435.712 45.3448 -89.1283 0.453448 -0.891283 1 0.5 0 1
195 1 53.9563 29.244 0 53.9563 29.244 0 -33.0001 -349.396 -99.2559 -182.638 -0.854988 -0.518648 1 0.5 0 1
196 1 58.7451 39.7445 0 58.7451 39.7445 0 126.779 -328.561 -275.771 272.108 -0.800712 -0.59905 1 0.5 0 1
197 1 70.9771 60.0344 0 -8.28888 60.0344 0 918.814 555.406 -173.865 192.495 0.525887 0.850554 1 0.5 0 1
198 1 73.3374 43.7903 0 73.3374 43.7903 0 -110.588 -377.207 62.7739 -67.1087 -0.492896 0.870088 1 0.5 0 1
199 1 64.5859 67.2758 0 -14.6801 -11.9902 0 85.5222 424.225 68.2145 53.8635 -0.571914 -0.820314 1 0.5 0 1
200 1 2.75445 15.3298 0 82.0205 94.5958 0 332.704 1043.85 4.80054 49.4673 0.649994 0.759939 1 0.5 0 1
201 1 32.1875 64.136 0 32.1875 64.136 0 387.745 -92.256 -29.4446 63.075 -0.539989 0.841672 1 0.5 0 1
202 1 56.8536 57.9181 0 -22.4124 -21.3479 0 323.991 -453.222 -49.8673 256.657 0.906592 -0.422007 1 0.5 0 1
203 1 32.1347 23.8775 0 -47.1313 103.143 0 -85.2489 -681.878 -80.9167 63.3098 -0.717113 0.696956 1 0.5 0 1
204 1 64.4994 62.5721 0 64.4994 -16.6939 0 335.049 -55.7245 -91.5601 -275.126 0.126416 -0.991977 1 0.5 0 1
205 1 15.0653 12.0777 0 15.0653 91.3437 0 109.945 619.951 138.162 108.945 0.682663 0.730733 1 0.5 0 1
206 1 1.76442 57.7878 0 1.76442 -21.4782 0 -805.818 -733.647 154.797 335.823 -0.208982 0.97792 1 0.5 0 1
207 1 58.1957 62.8591 0 58.1957 62.8591 0 -464.582 -217.026 -38.0806 -69.769 -0.0160715 -0.999871 1 0.5 0 1
208 1 8.94639 31.7786 0 8.94639 31.7786 0 275.68 -847.077 -53.029 92.5042 -0.739842 0.672781 1 0.5 0 1
209 1 53.5064 26.2998 0 53.5064 105.566 0 -166.842 229.169 -19.9103 89.8124 0.92954 0.368721 1 0.5 0 1
210 1 65.9209 61.1894 0 -13.3451 61.1894 0 283.25 -209.026 25.1086 -145.827 -0.702625 0.71156 1 0.5 0 1
211 1 60.8624 41.3132 0 60.8624 41.3132 0 -332.914 -98.1001 -197.893 50.5874 -0.791519 -0.611145 1 0.5 0 1
212 1 47.8502 23.7793 0 206.382 23.7793 0 491.816 233.824 -145.779 -59.8624 -0.253978 0.96721 1 0.5 0 1
213 1 69.3304 64.0461 0 69.3304 64.0461 0 313.047 327.875 -278.511 142.88 0.893828 0.44841 1 0.5 0 1
214 1 19.1306 1.79033 0 19.1306 81.0563 0 321.787 1255.08 -69.7143 -24.6388 -0.594402 -0.804168 1 0.5 0 1
215 1 55.4196 59.312 0 55.4196 -19.954 0 -215.156 768.206 -25.1176 -155.292 0.681004 -0.73228 1 0.5 0 1
216 1 14.6895 46.461 0 14.6895 125.727 0 -10.5974 -182.922 -72.6322 35.3079 -0.760262 0.649616 1 0.5 0 1
217 1 48.0178 67.9172 0 127.284 67.9172 0 129.821 180.374 62.79 14.9885 0.677847 0.735203 1 0.5 0 1
218 1 46.4511 47.3136 0 46.4511 47.3136 0 100.264 -107.835 -170.688 98.1621 -0.832885 -0.553446 1 0.5 0 1
219 1 53.4982 43.3299 0 53.4982 43.3299 0 -525.356 829.594 -60.4137 -142.303 -0.753499 -0.657449 1 0.5 0 1
220 1 58.3176 66.6179 0 58.3176 -91.9141 0 50.4954 -389.32 140.04 35.8994 0.484385 -0.874855 1 0.5 0 1
221 1 57.3786 10.9812 0 -21.8874 169.513 0 427.674 172.923 -79.0313 61.2703 -0.790313 0.612703 1 0.5 0 1
222 1 32.1446 28.0395 0 32.1446 28.0395 0 -437.186 513.257 37.8117 92.5758 0.378117 0.925758 1 0.5 0 1
223 1 71.5647 35.8517 0 -7.70134 35.8517 0 -513.422 -1297.18 -185.79 238.641 -0.731422 -0.681925 1 0.5 0 1
224 1 75.5034 60.5967 0 -3.7626 60.5967 0 373.117 301.284 119.88 41.7849 -0.739565 -0.673085 1 0.5 0 1
225 1 15.0272 28.8729 0 94.2932 -50.3931 0 385.362 -198.144 -98.4434 -22.0964 -0.994167 -0.107854 1 0.5 0 1
226 1 0.923899 0.52465 0 0.923899 0.52465 0 87.7058 -326.753 -49.2493 87.0316 -0.492493 0.870316 1 0.5 0 1
227 1 1.06376 36.2345 0 80.3298 36.2345 0 421.305 -690.241 -23.8395 -5.83903 -0.923638 -0.383267 1 0.5 0 1
228 1 14.7496 66.2924 0 -64.5164 -12.9736 0 475.668 -694.144 20.4773 -68.7984 -0.0448239 -0.998995 1 0.5 0 1
229 1 51.4676 39.1027 0 51.4676 39.1027 0 203.405 155.539 97.5122 -82.9605 -0.809717 -0.58682 1 0.5 0 1
230 1 51.9992 37.5477 0 51.9992 116.814 0 -16.3949 64.1119 11.4769 -182.303 -0.601353 0.798983 1 0.5 0 1
231 1 5.40388 22.062 0 5.40388 101.328 0 -86.8582 -125.848 98.0887 -44.537 -0.999853 0.0171615 1 0.5 0 1
232 1 47.8789 24.8619 0 47.8789 -54.4041 0 341.91 43.7038 188.362 -50.1839 0.946131 0.323784 1 0.5 0 1
233 1 6.42539 44.4836 0 6.42539 44.4836 0 211.72 788.171 -86.4042 -166.372 -0.71749 0.696569 1 0.5 0 1
234 1 38.7325 64.2633 0 38.7325 -15.0027 0 -415.362 76.4524 88.8298 45.9267 0.888298 0.459267 1 0.5 0 1
235 1 37.482 44.4291 0 37.482 123.695 0 143.014 -438.397 -9.69987 111.472 0.511068 0.85954 1 0.5 0 1
236 1 51.2431 15.8133 0 130.509 15.8133 0 422.216 -961.086 15.8486 -98.7361 0.158486 -0.987361 1 0.5 0 1
237 1 69.7055 69.7026 0 69.7055 -9.56342 0 -273.394 -775.72 75.0553 -60.932 -0.0528481 -0.998603 1 0.5 0 1
238 1 71.9264 20.7529 0 71.9264 100.019 0 100.793 269.456 44.9361 -68.1909 -0.655958 0.754797 1 0.5 0 1
239 1 3.13312 41.4559 0 82.3991 41.4559 0 -1305.48 822.839 74.8247 27.1605 0.745774 -0.666199 1 0.5 0 1
240 1 72.9736 16.5555 0 72.9736 16.5555 0 -399.596 74.2347 -8.30108 -83.2762 0.718619 -0.695404 1 0.5 0 1
241 1 48.1654 36.0735 0 48.1654 36.0735 0 -482.323 -156.88 -73.6978 -8.20222 -0.999745 0.0225854 1 0.5 0 1
242 1 2.02282 62.4067 0 81.2888 -16.8593 0 -89.6366 310.146 35.9143 -193.743 0.857293 0.514828 1 0.5 0 1
243 1 0.774886 73.614 0 -78.4911 73.614 0 -466.089 297.918 -7.15208 -10.7734 -0.999349 -0.0360702 1 0.5 0 1
244 1 61.1611 24.4958 0 61.1611 103.762 0 -924.442 1519.7 -3.2735 -274.165 0.981049 0.193759 1 0.5 0 1
245 1 56.6312 49.7679 0 56.6312 49.7679 0 93.0204 -490.885 116.975 -3.40023 -0.994536 -0.104397 1 0.5 0 1
246 1 49.0743 40.0556 0 49.0743 40.0556 0 638.26 472.991 91.9312 25.9536 -0.173503 -0.984833 1 0.5 0 1
247 1 66.777 53.3216 0 66.777 -25.9444 0 -776.181 629.666 41.9572 348.189 -0.258547 -0.965999 1 0.5 0 1
248 1 13.1422 67.8752 0 -66.1238 67.8752 0 626.437 -569.04 48.3393 -87.5404 0.483393 -0.875404 1 0.5 0 1
249 1 20.1161 65.8457 0 99.3821 -13.4203 0 384.914 -440.239 94.4055 -32.9787 0.944055 -0.329787 1 0.5 0 1
250 1 21.1296 1.86011 0 179.662 81.1261 0 121.204 16.6817 133.951 -29.521 0.940602 0.33951 1 0.5 0 1
251 1 37.8085 8.83766 0 37.8085 167.37 0 59.4313 -239.601 96.483 -26.2875 0.96483 -0.262875 1 0.5 0 1
252 1 60.5538 20.5233 0 60.5538 99.7893 0 62.7539 263.524 -9.00999 177.628 0.879945 0.475076 1 0.5 0 1
253 1 17.4444 47.4891 0 17.4444 47.4891 0 239.789 -177.303 108.361 21.1991 -0.723296 -0.690538 1 0.5 0 1
254 1 47.6586 33.1311 0 47.6586 112.397 0 223.428 957.653 -118.913 -121.326 0.986294 0.165 1 0.5 0 1
255 1 1.35586 33.6579 0 80.6219 112.924 0 -298.857 285.522 46.7975 4.92405 -0.52776 0.849394 1 0.5 0 1
256 1 68.5441 41.1944 0 -10.7219 41.1944 0 -73.3293 356.318 -6.30301 -63.212 0.792077 -0.610421 1 0.5 0 1
257 1 7.46696 37.6063 0 7.46696 116.872 0 92.8758 -384.705 -6.50875 97.2149 -0.193595 -0.981082 1 0.5 0 1
258 1 7.91645 25.7689 0 7.91645 -53.4971 0 766.723 -426.048 -12.4649 12.905 0.866244 0.499621 1 0.5 0 1
259 1 51.8321 63.9707 0 51.8321 63.9707 0 827.866 -497.926 -25.0449 -45.2864 -0.16864 -0.985678 1 0.5 0 1
260 1 69.3158 67.7057 0 148.582 -11.5603 0 -501.903 -30.9903 -19.7625 -104.982 0.990735 -0.135811 1 0.5 0 1
261 1 66.0722 72.0116 0 -13.1938 -7.25441 0 -578.881 533.249 15.7639 53.5972 0.834136 0.551559 1 0.5 0 1
262 1 57.067 58.9252 0 136.333 -20.3408 0 -558.73 133.965 38.0619 -115.179 0.320116 -0.947378 1 0.5 0 1
263 1 7.4254 17.5774 0 -71.8406 -61.6886 0 -641.546 510.357 -52.8118 -44.5771 -0.97163 -0.236505 1 0.5 0 1
264 1 29.29 54.1081 0 187.822 -25.1579 0 219.658 -672.355 -34.0742 -94.0157 -0.340742 -0.940157 1 0.5 0 1
265 1 52.9194 27.8941 0 52.9194 107.16 0 -142.25 -469.431 -115.308 132.371 0.873972 0.485977 1 0.5 0 1
266 1 56.1542 51.42 0 56.1542 51.42 0 217.382 66.089 173.848 -122.313 0.525692 0.850675 1 0.5 0 1
267 1 72.3734 62.275 0 -6.8926 -16.991 0 511.385 -41.3785 -43.0097 -88.7094 -0.827511 -0.561449 1 0.5 0 1
268 1 66.414 59.565 0 66.414 59.565 0 327.194 255.263 -29.1147 -71.0119 0.998884 -0.0472382 1 0.5 0 1
269 1 15.0804 53.339 0 94.3464 53.339 0 0.169423 204.55 -13.2413 -41.3381 -0.972881 0.231308 1 0.5 0 1
270 1 14.3967 73.9872 0 93.6627 -5.27883 0 -145.48 166.616 -20.1948 24.1811 -0.830043 0.557699 1 0.5 0 1
271 1 65.7358 14.6264 0 65.7358 14.6264 0 -296.574 803.261 13.3949 -44.8052 0.993425 -0.114488 1 0.5 0 1
272 1 51.0309 37.1623 0 51.0309 37.1623 0 930.856 -668.441 80.1706 -53.0443 0.839606 -0.543196 1 0.5 0 1
273 1 60.0237 49.0241 0 60.0237 49.0241 0 -536.109 -397.107 -70.3973 -199.698 0.603257 0.797547 1 0.5 0 1
274 1 53.2778 15.1259 0 53.2778 15.1259 0 872.011 -113.871 97.6235 -21.6713 0.976235 -0.216713 1 0.5 0 1
275 1 6.80762 60.2489 0 86.0736 -19.0171 0 347.296 686.981 -129.368 23.4668 -0.872124 0.489285 1 0.5 0 1
276 1 58.026 43.9415 0 58.026 43.9415 0 -98.7635 422.707 -36.4109 109.161 0.486582 0.873635 1 0.5 0 1
277 1 45.7339 19.442 0 -33.5321 19.442 0 1313.81 -57.8615 -28.6084 -19.39 0.910862 -0.412711 1 0.5 0 1
278 1 9.88097 32.0741 0 -69.385 111.34 0 -559.9 191.569 -29.7015 27.6363 -0.878104 -0.478471 1 0.5 0 1
279 1 38.1919 3.47331 0 117.458 -75.7927 0 -60.9084 517.769 -75.8709 -48.8632 -0.313036 -0.949741 1 0.5 0 1
280 1 29.4747 9.80379 0 -49.7913 -69.4622 0 -81.2848 142.977 -84.9787 52.7126 -0.849787 0.527126 1 0.5 0 1
281 1 68.0866 55.5866 0 68.0866 55.5866 0 215.232 -49.1265 44.4095 27.5062 -0.832171 0.55452 1 0.5 0 1
282 1 47.9166 45.9942 0 47.9166 -33.2718 0 -609.258 -32.9259 142.06 50.9377 0.0629096 -0.998019 1 0.5 0 1
283 1 69.2087 29.8449 0 -10.0573 109.111 0 335.484 -620.434 -198.968 -86.3012 -0.696235 0.717814 1 0.5 0 1
284 1 6.54549 28.1351 0 6.54549 107.401 0 234.951 -442.422 -46.3866 30.0319 0.805348 0.592802 1 0.5 0 1