ITEM: TIMESTEP
400000
ITEM: NUMBER OF ATOMS
4000
ITEM: BOX BOUNDS pp pp pp
0.0000000000000000e+00 7.9266000000000005e+01
0.0000000000000000e+00 7.9266000000000005e+01
-5.0000000000000000e-01 5.0000000000000000e-01
ITEM: ATOMS id type x y z xu yu zu vx vy fx fy mux muy mu radius omegaz mass
1 1 4.52953 64.7751 0 83.7955 64.7751 0 276.007 -154.299 314.189 21.1441 -0.624385 -0.781117 1 0.5 0 1
2 1 61.2464 19.1657 0 61.2464 19.1657 0 172.012 599.553 -79.0578 -131.732 0.398829 -0.917025 1 0.5 0 1
3 1 15.8867 34.4223 0 15.8867 -44.8437 0 -416.039 247.343 20.956 -161.315 0.994416 -0.105528 1 0.5 0 1
4 1 3.60316 15.5663 0 3.60316 15.5663 0 -51.3894 -717.716 -140.477 -101.884 -0.955708 -0.294316 1 0.5 0 1
5 1 1.8232 32.4197 0 1.8232 32.4197 0 555.882 -326.726 125.305 -4.41672 -0.45455 0.890721 1 0.5 0 1
6 1 69.3133 30.4094 0 -9.95268 30.4094 0 244.747 -67.705 115.591 -125.689 0.922974 0.384862 1 0.5 0 1
7 1 66.8836 50.0696 0 66.8836 50.0696 0 -357.983 88.411 166.061 -209.874 -0.108426 0.994105 1 0.5 0 1
8 1 16.6429 36.142 0 16.6429 -43.124 0 -44.1556 -757.679 -27.372 -21.4092 -0.264879 -0.964282 1 0.5 0 1
9 1 67.9173 28.1663 0 67.9173 28.1663 0 107.413 -3.73788 -6.12203 -137.9 -0.66748 -0.744628 1 0.5 0 1
10 1 21.3599 55.4866 0 21.3599 55.4866 0 436.351 577.249 -40.957 -65.3761 -0.875924 -0.482449 1 0.5 0 1
11 1 71.2457 7.06587 0 -87.2863 7.06587 0 218.446 -388.911 -58.2206 -13.7698 -0.753804 0.657099 1 0.5 0 1
12 1 79.106 23.491 0 79.106 102.757 0 -195.24 755.473 45.9816 -121.65 -0.707277 -0.706936 1 0.5 0 1
13 1 77.6089 68.5325 0 77.6089 -10.7335 0 -255.464 965.375 -5.00695 -153.9 -0.777345 0.629075 1 0.5 0 1
14 1 17.2004 42.6971 0 -141.332 42.6971 0 -22.3305 -502.879 -64.8367 154.804 -0.778818 -0.62725 1 0.5 0 1
15 1 10.4731 35.2878 0 10.4731 35.2878 0 27.3278 -621.763 63.2911 87.7418 -0.803452 0.595369 1 0.5 0 1
16 1 15.8463 51.2324 0 -63.4197 -28.0336 0 -64.6112 -199.385 17.8056 30.6568 -0.93046 0.366394 1 0.5 0 1
17 1 40.5925 40.0252 0 119.859 119.291 0 160.565 -233.057 -64.5344 55.9312 0.998606 -0.0527752 1 0.5 0 1
18 1 73.1645 75.2433 0 -6.10146 -4.02273 0 -334.073 352.335 -103.901 -55.005 -0.403205 -0.91511 1 0.5 0 1
19 1 4.16779 42.5824 0 4.16779 42.5824 0 417.451 1008.91 -107.627 -194.79 0.138297 0.990391 1 0.5 0 1
20 1 15.5217 58.1634 0 15.5217 58.1634 0 35.5403 502.573 78.892 -168.081 0.932489 -0.361197 1 0.5 0 1
21 1 2.86498 29.1398 0 2.86498 29.1398 0 1070.97 97.4074 -5.63634 -330.412 0.646905 0.762571 1 0.5 0 1
22 1 1.29925 22.2165 0 80.5652 22.2165 0 12.5881 450.464 -131.62 -212.792 -0.801944 0.597399 1 0.5 0 1
23 1 38.2354 45.5572 0 117.501 45.5572 0 -35.6745 267.481 11.5917 89.372 -0.286201 -0.95817 1 0.5 0 1
24 1 66.3008 57.6422 0 66.3008 -21.6238 0 -209.998 380.789 -50.965 -237.176 -0.488937 -0.872319 1 0.5 0 1
25 1 47.108 29.0347 0 -32.158 -50.2313 0 270.6 619.667 -136.328 -58.7198 0.999816 -0.0191638 1 0.5 0 1
26 1 51.7545 58.2151 0 51.7545 -100.317 0 -146.605 -132.074 80.5933 8.63107 0.912855 -0.408284 1 0.5 0 1
27 1 73.9085 19.8457 0 -5.35751 99.1117 0 -1009.37 220.963 25.3858 70.2357 -0.81003 -0.586389 1 0.5 0 1
28 1 26.7599 77.2474 0 26.7599 77.2474 0 -876.578 169.887 -86.9931 -103.334 -0.876119 -0.482095 1 0.5 0 1
29 1 73.9792 39.0592 0 -5.28679 39.0592 0 180.984 -44.7943 17.4203 53.1798 -0.925354 -0.379105 1 0.5 0 1
30 1 74.186 11.3649 0 74.186 90.6309 0 -657.473 90.5584 14.8131 -47.1661 0.41932 0.907838 1 0.5 0 1
31 1 73.8242 27.1934 0 -5.44177 27.1934 0 -470.28 -354.833 -40.51 48.0097 -0.927557 0.373681 1 0.5 0 1
32 1 2.96574 17.2418 0 2.96574 17.2418 0 -506.219 670.544 203.913 -81.4941 0.692517 0.721402 1 0.5 0 1
33 1 64.7806 58.8996 0 64.7806 -20.3664 0 153.806 -86.337 94.7601 35.6691 -0.860297 -0.509793 1 0.5 0 1
34 1 6.03811 46.0709 0 85.3041 46.0709 0 726.44 -741.595 -98.0356 91.8998 -0.123911 0.992293 1 0.5 0 1
35 1 43.2743 36.2345 0 -35.9917 36.2345 0 716.956 -58.6598 30.8815 5.65165 0.995189 -0.0979731 1 0.5 0 1
36 1 60.1047 58.4658 0 60.1047 -20.8002 0 -598.101 1019.24 -236.353 -53.2824 -0.561498 0.827478 1 0.5 0 1
37 1 69.5382 43.0031 0 69.5382 43.0031 0 -286.955 -37.7723 -43.1605 11.8479 -0.923014 0.384766 1 0.5 0 1
38 1 77.8253 12.6207 0 157.091 91.8867 0 155.953 110.279 100.195 34.8307 0.95492 -0.296863 1 0.5 0 1
39 1 8.03322 24.3888 0 87.2992 -54.8772 0 296.179 -505.155 304.112 -159.744 -0.416989 -0.908911 1 0.5 0 1
40 1 55.9909 18.6979 0 -23.2751 97.9639 0 377.594 -103.679 35.8294 5.24905 0.306198 0.951968 1 0.5 0 1
41 1 68.7996 53.099 0 68.7996 53.099 0 176.841 392.795 84.7387 -153.969 0.998509 0.0545848 1 0.5 0 1
42 1 75.0108 60.3986 0 -4.25523 60.3986 0 -45.2003 -1032.04 64.1428 87.093 -0.263502 -0.964659 1 0.5 0 1
43 1 0.142615 16.1143 0 -79.1234 95.3803 0 139.006 -521.819 -129.62 27.3344 -0.331731 -0.943374 1 0.5 0 1
44 1 65.1284 21.4527 0 65.1284 100.719 0 -743.973 188.596 95.8945 199.57 0.157814 0.987469 1 0.5 0 1
45 1 11.0998 68.5883 0 11.0998 -89.9437 0 575.205 615.753 -94.9726 38.0268 0.284757 -0.9586 1 0.5 0 1
46 1 6.71549 42.516 0 6.71549 42.516 0 -537.691 222.99 133.858 122.68 -0.998098 0.0616479 1 0.5 0 1
47 1 58.1799 61.4586 0 58.1799 -17.8074 0 411.174 -416.071 121.395 -12.0645 -0.7097 -0.704504 1 0.5 0 1
48 1 12.2156 47.2584 0 12.2156 47.2584 0 70.1311 538.775 -152.124 57.0058 0.228234 -0.973606 1 0.5 0 1
49 1 23.6797 67.3123 0 23.6797 67.3123 0 -159.637 987.814 91.1543 -41.1204 0.911543 -0.411204 1 0.5 0 1
50 1 60.2525 15.1647 0 -19.0135 15.1647 0 67.0552 -556.82 -34.0133 7.49783 -0.254436 0.96709 1 0.5 0 1
51 1 62.7059 72.3312 0 -95.8261 -6.93478 0 -271.312 211.067 -52.1447 -151.623 -0.488811 -0.872389 1 0.5 0 1
52 1 3.01854 33.7441 0 82.2845 33.7441 0 400.733 -581.345 -89.8512 -141.013 -0.556778 0.830661 1 0.5 0 1
53 1 12.9099 55.7035 0 12.9099 134.969 0 222.889 337.023 -11.8011 -19.6727 -0.980449 -0.196775 1 0.5 0 1
54 1 52.6545 30.2885 0 52.6545 30.2885 0 -1098.09 481.433 175.945 -36.0491 -0.925854 0.37788 1 0.5 0 1
55 1 16.5068 43.4706 0 95.7728 122.737 0 -580.284 644.001 -81.4159 -105.45 -0.977464 0.211101 1 0.5 0 1
56 1 42.0958 38.6681 0 42.0958 38.6681 0 78.7916 -787.12 -13.7519 -72.1251 0.838385 0.545079 1 0.5 0 1
57 1 13.7425 24.4 0 13.7425 103.666 0 -243.353 -715.157 -38.5192 -54.9636 -0.999997 -0.00244902 1 0.5 0 1
58 1 67.2095 28.8644 0 -12.0565 28.8644 0 -177.471 133.946 -260.066 73.3752 -0.601239 0.799069 1 0.5 0 1
59 1 51.6905 34.4877 0 51.6905 34.4877 0 1413.11 431.21 -230.924 24.7211 0.735447 -0.677582 1 0.5 0 1
60 1 55.8298 41.3976 0 55.8298 41.3976 0 -227.042 157.503 -116.72 -44.6327 0.999001 -0.0446983 1 0.5 0 1
61 1 58.3645 44.8429 0 58.3645 44.8429 0 301.782 -728.011 104.409 131.274 0.994995 -0.099928 1 0.5 0 1
62 1 57.0994 20.1095 0 136.365 20.1095 0 204.49 970.128 -140.431 33.9031 0.901711 0.432339 1 0.5 0 1
63 1 13.2845 61.6451 0 -65.9815 -17.6209 0 -536.991 -477.744 -3.95072 182.462 -0.133985 0.990983 1 0.5 0 1
64 1 43.4117 28.8758 0 122.678 108.142 0 45.5863 416.032 11.9564 -88.9617 -0.562701 0.82666 1 0.5 0 1
65 1 43.0669 31.5017 0 201.599 110.768 0 1161.15 466.521 13.0941 -102.944 0.952536 0.304427 1 0.5 0 1
66 1 13.4735 45.7119 0 92.7395 124.978 0 121.181 -49.7326 151.482 60.4942 0.95572 0.294278 1 0.5 0 1
67 1 53.5926 43.3604 0 53.5926 43.3604 0 -31.728 517.38 -215.757 63.0445 -0.0298303 -0.999555 1 0.5 0 1
68 1 14.4868 40.6811 0 14.4868 40.6811 0 -18.7598 -365.858 161.299 179.261 -0.284217 -0.95876 1 0.5 0 1
69 1 53.6502 21.5972 0 53.6502 21.5972 0 388.118 -269.992 77.1656 50.7287 0.967883 0.251402 1 0.5 0 1
70 1 48.0077 37.7421 0 48.0077 117.008 0 56.677 -808.599 -19.2948 126.373 0.44475 -0.895655 1 0.5 0 1
71 1 60.6804 6.10698 0 139.946 6.10698 0 84.3733 107.524 -40.5013 85.7868 0.14611 0.989268 1 0.5 0 1
72 1 5.34521 58.0379 0 5.34521 58.0379 0 -736.415 1043.85 -60.5567 -37.3709 -0.109675 -0.993968 1 0.5 0 1
73 1 3.43378 14.4753 0 3.43378 14.4753 0 308.939 -368.059 -19.7398 10.8562 -0.948586 -0.316519 1 0.5 0 1
74 1 57.3453 22.2922 0 57.3453 101.558 0 108.726 -70.1812 154.972 -25.5765 0.828205 -0.560426 1 0.5 0 1
75 1 75.6669 38.7311 0 -3.59914 38.7311 0 -279.754 262.035 38.286 -46.6801 0.777428 0.628972 1 0.5 0 1
76 1 46.1028 23.2502 0 -33.1632 23.2502 0 -716.521 -282.762 -114.884 -48.2991 -0.264358 0.964425 1 0.5 0 1
77 1 78.2688 35.0939 0 -0.997208 35.0939 0 834.681 -58.8625 80.7655 158.039 0.99563 0.0933819 1 0.5 0 1
78 1 60.0189 17.8564 0 60.0189 97.1224 0 891.437 415.586 30.2908 81.346 0.196888 -0.980426 1 0.5 0 1
79 1 43.6166 56.1533 0 -35.6494 56.1533 0 -381.845 524.71 64.7077 5.95195 0.922232 -0.386637 1 0.5 0 1
80 1 79.0319 27.1332 0 -0.23412 -52.1328 0 105.974 189.957 112.143 -104.336 -0.654209 -0.756314 1 0.5 0 1
81 1 47.3716 34.7128 0 126.638 34.7128 0 -307.543 -49.9828 19.9412 72.4405 0.50694 0.861982 1 0.5 0 1
82 1 0.901429 39.4131 0 0.901429 39.4131 0 -237.413 362.631 380.494 -42.2686 0.985787 0.167999 1 0.5 0 1
83 1 41.515 40.3476 0 120.781 119.614 0 -182.442 275.823 113.719 113.55 -0.453723 0.891143 1 0.5 0 1
84 1 76.7728 44.7183 0 -2.49321 44.7183 0 553.564 251.504 -24.2242 68.3875 -0.859126 -0.511764 1 0.5 0 1
85 1 15.1482 16.0983 0 15.1482 16.0983 0 -656.236 -6.22799 51.8227 -86.6812 -0.833419 -0.552642 1 0.5 0 1
86 1 10.7855 40.8627 0 10.7855 40.8627 0 -134.871 634.921 -48.502 -255.224 -0.896369 0.443308 1 0.5 0 1
87 1 11.3578 42.705 0 11.3578 42.705 0 -475.405 -614.402 122.098 219.23 -0.925993 -0.377541 1 0.5 0 1
88 1 19.2252 65.4442 0 19.2252 -13.8218 0 106.858 148.773 55.8502 82.9503 0.558502 0.829503 1 0.5 0 1
89 1 23.0545 54.7073 0 23.0545 -24.5587 0 351.748 227.594 22.8515 41.2513 -0.899272 -0.437391 1 0.5 0 1
90 1 4.15158 38.7013 0 4.15158 38.7013 0 257.063 -515.625 -30.2265 295.921 -0.994926 -0.100605 1 0.5 0 1
91 1 16.8127 59.3659 0 16.8127 -19.9001 0 719.603 -489.394 47.7689 -64.3434 -0.699594 -0.714541 1 0.5 0 1
92 1 3.81279 55.8744 0 3.81279 55.8744 0 -10.7509 -583.444 145.057 -224.283 0.999642 -0.02675 1 0.5 0 1
93 1 2.21855 46.4045 0 2.21855 46.4045 0 -395.72 1278.37 -187.654 49.3599 -0.570837 0.821063 1 0.5 0 1
94 1 69.9877 36.8559 0 69.9877 36.8559 0 977.419 176.616 3.41337 1.19172 0.413579 -0.910468 1 0.5 0 1
95 1 66.6471 49.116 0 66.6471 49.116 0 23.967 -1264.11 -0.928811 213.001 -0.51863 0.854999 1 0.5 0 1
96 1 53.3377 42.3694 0 53.3377 42.3694 0 320.985 -328.364 130.251 297.587 -0.125583 -0.992083 1 0.5 0 1
97 1 57.9913 2.10991 0 57.9913 -77.1561 0 -377.654 -959.822 33.5618 -94.1998 0.335618 -0.941998 1 0.5 0 1
98 1 20.1167 49.9776 0 20.1167 49.9776 0 -580.352 8.62531 -97.8051 -67.1082 -0.956597 -0.291414 1 0.5 0 1
99 1 44.9217 39.6116 0 44.9217 -39.6544 0 -17.3725 -515.786 -211.119 24.0319 0.472015 0.881591 1 0.5 0 1
100 1 72.4507 43.9081 0 72.4507 43.9081 0 -730.51 620.779 44.7932 61.6361 0.933077 -0.359678 1 0.5 0 1
101 1 49.0853 47.4765 0 49.0853 -31.7895 0 737.201 182.92 -15.323 160.486 -0.43413 0.90085 1 0.5 0 1
102 1 78.2792 43.379 0 -0.986771 43.379 0 -1006.28 -165.505 -133.808 22.7223 -0.657518 -0.753439 1 0.5 0 1
103 1 32.5278 60.3031 0 -126.004 139.569 0 -687.134 8.87846 -94.152 -33.6958 -0.94152 -0.336958 1 0.5 0 1
104 1 52.835 44.0149 0 52.835 123.281 0 -285.119 149.889 38.4979 66.4613 0.910993 0.412422 1 0.5 0 1
105 1 16.201 27.145 0 16.201 27.145 0 -383.717 441.308 -32.1967 10.0895 -0.387189 0.922001 1 0.5 0 1
106 1 33.8339 45.8974 0 33.8339 -33.3686 0 -346.593 -177.467 -73.3222 -67.999 -0.733222 -0.67999 1 0.5 0 1
107 1 61.2885 37.6782 0 61.2885 37.6782 0 454.452 -64.7782 89.404 47.5485 0.999615 -0.0277309 1 0.5 0 1
108 1 78.7279 37.0484 0 -0.538128 116.314 0 -345.047 -499.246 88.806 126.885 -0.336832 -0.941565 1 0.5 0 1
109 1 11.9297 24.7766 0 -67.3363 104.043 0 -137.49 330.227 16.5291 13.9113 0.786136 0.618054 1 0.5 0 1
110 1 50.1894 31.1041 0 50.1894 31.1041 0 1295.19 443.333 -47.9504 -97.285 -0.442267 0.896883 1 0.5 0 1
111 1 73.9306 15.2638 0 73.9306 94.5298 0 660.246 -364.121 -118.438 -50.7451 0.643365 0.76556 1 0.5 0 1
112 1 11.2769 49.8164 0 11.2769 49.8164 0 216.577 -99.5792 -17.6764 97.9386 0.686492 0.727137 1 0.5 0 1
113 1 12.4202 27.7936 0 -66.8458 107.06 0 -287.443 -418.765 86.7353 -24.7711 -0.497286 0.867587 1 0.5 0 1
114 1 53.6803 55.0321 0 53.6803 55.0321 0 365.674 -232.171 -56.7209 -114.762 0.804915 0.593389 1 0.5 0 1
115 1 39.2732 44.9526 0 39.2732 -34.3134 0 -529.108 623.845 83.4733 62.9538 0.827103 -0.562051 1 0.5 0 1
116 1 59.7458 72.7416 0 59.7458 -85.7904 0 -287.375 -709.839 93.4521 -32.4491 -0.597433 -0.801919 1 0.5 0 1
117 1 64.3085 67.7006 0 64.3085 -11.5654 0 296.079 -170.843 -107.849 58.2193 0.931603 -0.363476 1 0.5 0 1
118 1 54.097 41.7529 0 54.097 41.7529 0 593.952 156.793 -20.8653 -358.457 0.62446 -0.781057 1 0.5 0 1
119 1 15.6902 77.7146 0 174.222 -1.55138 0 22.0079 718.377 95.1441 -30.7831 0.951441 -0.307831 1 0.5 0 1
120 1 45.4072 50.9599 0 124.673 -28.3061 0 179.463 153.589 -31.6256 -56.3318 -0.582662 -0.812714 1 0.5 0 1
121 1 44.6099 20.7638 0 -113.922 20.7638 0 -26.1982 496.964 71.2324 -70.1851 0.712324 -0.701851 1 0.5 0 1
122 1 20.8079 44.4895 0 20.8079 123.755 0 -457.243 -418.818 6.63766 52.5351 0.931611 0.363457 1 0.5 0 1
123 1 74.0385 31.8026 0 -5.22747 31.8026 0 6.70169 357.981 167.333 47.0175 -0.504189 0.863593 1 0.5 0 1
124 1 22.9861 59.2047 0 -56.2799 -20.0613 0 735.822 75.1348 5.4887 68.5341 0.155636 -0.987814 1 0.5 0 1
125 1 65.5359 29.2237 0 65.5359 29.2237 0 -735.461 60.8008 -129.263 303.7 -0.891067 0.453872 1 0.5 0 1
126 1 8.80407 35.707 0 88.0701 114.973 0 -951.557 456.762 -3.75056 -63.3969 0.998589 -0.0531064 1 0.5 0 1
127 1 57.1521 31.0565 0 57.1521 110.323 0 241.818 397.426 -6.71455 156.03 -0.139765 0.990185 1 0.5 0 1
128 1 2.17628 26.1575 0 -77.0897 26.1575 0 -799.548 73.0889 -20.145 63.3315 -0.996815 -0.0797444 1 0.5 0 1
129 1 67.9929 57.2978 0 67.9929 -21.9682 0 190.73 -385.084 -7.87229 35.447 -0.999076 0.0429865 1 0.5 0 1
130 1 74.0793 56.5975 0 74.0793 -22.6685 0 -16.9212 -558.869 185.387 -62.544 -0.894502 -0.447065 1 0.5 0 1
131 1 1.739 72.4831 0 1.739 72.4831 0 -702.146 -269.429 350.049 55.0874 -0.0314833 -0.999504 1 0.5 0 1
132 1 59.1991 32.6432 0 -20.0669 111.909 0 -371.242 -87.9788 83.4276 -59.2754 0.933441 0.358732 1 0.5 0 1
133 1 18.0411 49.7957 0 18.0411 129.062 0 -196.256 -765.101 -55.2834 197.062 -0.949415 0.314024 1 0.5 0 1
134 1 12.1109 38.4301 0 12.1109 38.4301 0 311.644 -249.664 52.3361 102.688 0.162462 -0.986715 1 0.5 0 1
135 1 16.3543 54.8597 0 16.3543 134.126 0 -145.951 -256.91 83.4294 -82.4649 -0.0920143 0.995758 1 0.5 0 1
136 1 27.0506 71.0759 0 106.317 150.342 0 398.352 14.9979 34.7491 93.7683 0.347491 0.937683 1 0.5 0 1
137 1 36.0507 45.7009 0 115.317 45.7009 0 288.29 556.584 -8.37796 -89.1052 -0.0504547 -0.998726 1 0.5 0 1
138 1 47.5165 52.5192 0 -31.7495 -26.7468 0 -407.983 -500.341 207.337 107.453 0.0810406 0.996711 1 0.5 0 1
139 1 43.6746 43.0073 0 43.6746 -36.2587 0 40.5463 50.5384 152.26 176.99 0.146837 -0.989161 1 0.5 0 1
140 1 2.4287 14.1015 0 2.4287 14.1015 0 -176.282 63.5585 -23.7996 -95.1676 -0.826454 0.563004 1 0.5 0 1
141 1 10.8002 57.8589 0 10.8002 57.8589 0 577.123 -451.653 23.0256 -171.837 0.908254 -0.41842 1 0.5 0 1
142 1 18.008 30.6313 0 -61.258 109.897 0 117.563 -575.147 -8.26054 -12.3156 -0.0894843 0.995988 1 0.5 0 1
143 1 10.7108 36.2765 0 10.7108 115.543 0 -133.733 281.022 -100.382 -40.1026 0.397085 0.917782 1 0.5 0 1
144 1 18.6597 35.7869 0 18.6597 35.7869 0 161.957 -245.607 -64.5731 -67.3675 -0.780221 -0.625504 1 0.5 0 1
145 1 13.6764 67.4071 0 92.9424 67.4071 0 64.8477 -98.92 14.0407 -21.2887 0.121791 -0.992556 1 0.5 0 1
146 1 60.4379 62.9111 0 60.4379 -16.3549 0 220.073 688.872 -18.3864 -34.9956 -0.170144 -0.985419 1 0.5 0 1
147 1 0.995899 68.9361 0 80.2619 -10.3299 0 -388.526 212.612 113.626 33.8924 -0.835587 0.549358 1 0.5 0 1
148 1 50.9981 59.05 0 130.264 59.05 0 653.117 -53.6139 50.1168 -43.4349 -0.712331 0.701844 1 0.5 0 1
149 1 71.4073 31.94 0 71.4073 111.206 0 549.561 444.222 188.621 54.6773 -0.896734 0.442571 1 0.5 0 1
150 1 66.4266 36.6333 0 -12.8394 36.6333 0 122.79 -651.561 -78.7554 211.684 0.911382 0.411561 1 0.5 0 1
151 1 4.35311 57.77 0 83.6191 -21.496 0 852.548 -430.469 -85.0397 -45.4189 -0.640981 -0.767556 1 0.5 0 1
152 1 63.8446 65.7278 0 63.8446 65.7278 0 -139.976 325.635 17.8382 64.4477 0.110277 -0.993901 1 0.5 0 1
153 1 76.8615 60.1514 0 76.8615 60.1514 0 -173.136 65.5955 -50.8003 -169.769 0.960012 -0.279958 1 0.5 0 1
154 1 3.18261 50.3949 0 3.18261 50.3949 0 260.212 234.087 -56.2791 -213.225 -0.00941995 0.999956 1 0.5 0 1
155 1 70.5372 68.008 0 -87.9948 -11.258 0 400.012 -193.426 -208.425 -81.2374 0.466398 0.884575 1 0.5 0 1
156 1 74.0176 48.4699 0 74.0176 48.4699 0 -104.459 829.515 128.231 -64.7639 -0.216923 -0.976189 1 0.5 0 1
157 1 5.00294 30.7313 0 5.00294 30.7313 0 594.278 260.753 2.20387 -11.4941 0.829137 -0.559046 1 0.5 0 1
158 1 67.0715 39.5371 0 -12.1945 39.5371 0 -76.2395 594.602 -110.889 -227.801 0.970969 -0.239205 1 0.5 0 1
159 1 3.7655 12.5305 0 3.7655 91.7965 0 -606.329 309.517 144.688 50.3834 -0.325458 0.945557 1 0.5 0 1
160 1 54.9265 16.2924 0 54.9265 16.2924 0 -33.4593 -621.233 84.9886 5.17848 0.731876 0.681438 1 0.5 0 1
161 1 27.2571 18.8379 0 27.2571 -60.4281 0 -1104.05 -325.221 -89.6083 -44.3886 -0.896083 -0.443886 1 0.5 0 1
162 1 6.67791 53.0941 0 6.67791 53.0941 0 25.8934 -52.5951 151.736 13.6026 -0.851265 -0.524736 1 0.5 0 1
163 1 63.2625 49.8534 0 63.2625 49.8534 0 422.423 -571.057 2.56988 141.25 0.414173 0.910198 1 0.5 0 1
164 1 58.059 64.0986 0 58.059 -15.1674 0 711.333 -466.712 -93.9257 9.87708 0.99815 -0.060803 1 0.5 0 1
165 1 38.7893 67.5375 0 38.7893 67.5375 0 99.7198 173.265 134.765 142.415 0.115234 0.993338 1 0.5 0 1
166 1 10.4294 45.2364 0 10.4294 45.2364 0 -83.075 -142.824 75.0176 -272.58 0.263113 0.964765 1 0.5 0 1
167 1 64.8373 29.9172 0 64.8373 29.9172 0 308.957 249.244 -167.999 97.664 -0.488103 -0.872786 1 0.5 0 1
168 1 12.8724 68.191 0 -66.3936 68.191 0 -249.152 108.988 8.00259 -45.7241 -0.99239 0.123138 1 0.5 0 1
169 1 21.315 58.287 0 -57.951 137.553 0 -121.136 -488.92 -93.102 -77.4708 -0.935923 -0.352204 1 0.5 0 1
170 1 17.3733 55.032 0 96.6393 134.298 0 -222.63 229.048 -156.725 27.2396 0.820178 0.572109 1 0.5 0 1
171 1 60.9807 68.5592 0 140.247 -10.7068 0 -244.827 556.486 167.906 -127.029 0.994565 -0.104116 1 0.5 0 1
172 1 9.04738 58.2231 0 9.04738 -21.0429 0 201.468 -951.095 37.9782 154.144 0.694953 -0.719055 1 0.5 0 1
173 1 53.1237 18.5227 0 53.1237 -60.7433 0 60.0692 -328.627 0.423847 32.4001 -0.275778 0.961221 1 0.5 0 1
174 1 10.1234 52.1975 0 10.1234 52.1975 0 199.742 -944.842 -71.5619 -25.1306 -0.970208 -0.242274 1 0.5 0 1
175 1 54.5517 63.498 0 -24.7143 -15.768 0 -605.297 -6.40597 64.5105 -139.564 0.935316 0.353814 1 0.5 0 1
176 1 11.5999 50.8034 0 11.5999 50.8034 0 -167.882 292.272 14.0988 -231.783 0.886328 0.463058 1 0.5 0 1
177 1 3.5674 70.4965 0 3.5674 70.4965 0 217.577 -473.801 -16.6921 59.5441 -0.984999 -0.172559 1 0.5 0 1
178 1 56.816 29.0979 0 -22.45 108.364 0 42.0303 -254.448 -80.8529 -66.5268 -0.936833 -0.349778 1 0.5 0 1
179 1 4.8294 56.115 0 4.8294 -23.151 0 214.911 432.951 -55.7422 -16.3101 0.79911 -0.601185 1 0.5 0 1
180 1 73.7007 41.6575 0 73.7007 41.6575 0 -34.8803 520.39 -166.957 -113.435 -0.933681 -0.358105 1 0.5 0 1
181 1 71.4882 11.7155 0 71.4882 11.7155 0 -45.6327 -476.702 -73.074 -21.5109 0.941163 0.337952 1 0.5 0 1
182 1 9.06261 70.0409 0 -70.2034 70.0409 0 -580.859 554.015 -24.0888 -43.8113 -0.732848 -0.680393 1 0.5 0 1
183 1 58.8131 57.2369 0 58.8131 -22.0291 0 242.573 -327.466 -13.5772 -27.761 -0.680405 -0.732837 1 0.5 0 1
184 1 63.2618 42.7885 0 63.2618 42.7885 0 -464.899 79.5086 -63.2448 -123.976 -0.291415 -0.956597 1 0.5 0 1
185 1 54.9437 17.3501 0 -24.3223 17.3501 0 626.38 332.996 -49.4927 -7.56401 -0.112346 0.993669 1 0.5 0 1
186 1 18.4272 32.53 0 -60.8388 111.796 0 -1048.28 -869.369 -49.4973 -50.5724 -0.312066 0.95006 1 0.5 0 1
187 1 55.2493 34.9238 0 -24.0167 114.19 0 -700.39 376.977 -163.03 189.873 0.741888 0.670523 1 0.5 0 1
188 1 65.0877 15.8204 0 144.354 95.0864 0 638.733 1002.5 87.7205 -56.5195 -0.138071 0.990422 1 0.5 0 1
189 1 64.6745 72.5111 0 -14.5915 72.5111 0 -447.054 -326.75 -151.976 -31.2826 0.740234 -0.672349 1 0.5 0 1
190 1 21.692 53.7242 0 -57.574 53.7242 0 630.211 -632.033 -140.083 -44.7588 -0.385406 0.922747 1 0.5 0 1
191 1 70.1801 6.70641 0 149.446 6.70641 0 -1009.26 211.621 35.8879 -93.3384 0.358879 -0.933384 1 0.5 0 1
192 1 58.5836 37.7754 0 58.5836 37.7754 0 -395.206 236.894 45.0573 136.225 0.545564 0.838069 1 0.5 0 1
193 1 76.4143 14.0567 0 -2.85175 93.3227 0 -262.19 617.904 -71.6036 -67.6854 -0.885719 0.464222 1 0.5 0 1
194 1 16.5947 29.1847 0 16.5947 -50.0813 0 -556.414 -577.746 -10.9951 -68.3492 -0.629353 0.777119 1 0.5 0 1
195 1 53.599 30.6417 0 53.599 30.6417 0 547.725 -124.648 -154.921 -176.365 -0.675109 0.737718 1 0.5 0 1
196 1 58.4742 41.2922 0 58.4742 41.2922 0 -3.84094 421.193 -78.6698 18.1853 -0.495021 -0.868881 1 0.5 0 1
197 1 71.6635 61.1477 0 -7.60246 61.1477 0 283.489 -531.408 31.1066 118.883 0.958484 -0.285148 1 0.5 0 1
198 1 73.6401 45.2219 0 73.6401 45.2219 0 -795.932 390.541 -162.485 -158.644 -0.87156 0.490288 1 0.5 0 1
199 1 68.1682 68.9644 0 -11.0978 -10.3016 0 -324.545 420.767 -116.879 36.0739 0.448705 -0.89368 1 0.5 0 1
200 1 2.2028 17.8685 0 81.4688 97.1345 0 251.379 -662.46 -89.6341 127.787 -0.213012 0.97705 1 0.5 0 1
201 1 63.0393 13.1448 0 -16.2267 92.4108 0 8.98898 -46.1737 -39.6599 20.1198 -0.217061 0.976158 1 0.5 0 1
202 1 56.6665 59.2948 0 -22.5995 -19.9712 0 -405.682 -609.805 -86.06 268.962 0.853736 -0.520707 1 0.5 0 1
203 1 20.7657 41.7968 0 -58.5003 121.063 0 424.286 -226.986 -122.507 -67.3344 -0.670967 0.741487 1 0.5 0 1
204 1 65.0279 63.4293 0 65.0279 -15.8367 0 522.399 993.196 -227.681 -149.104 -0.801831 -0.59755 1 0.5 0 1
205 1 50.5819 19.4755 0 50.5819 98.7415 0 -136.888 377.196 -39.0074 -22.6235 0.894641 0.446786 1 0.5 0 1
206 1 3.88017 59.5129 0 3.88017 -19.7531 0 814.16 418.062 2.88153 29.0989 -0.835571 0.549382 1 0.5 0 1
207 1 59.7382 63.6285 0 59.7382 63.6285 0 190.931 -379.17 97.4393 -19.7781 0.990891 -0.134669 1 0.5 0 1
208 1 9.05676 33.0697 0 9.05676 33.0697 0 268.278 -666.546 -147.617 -108.174 -0.336382 0.941726 1 0.5 0 1
209 1 53.0978 27.7372 0 53.0978 107.003 0 181.331 496.845 -29.6071 -148.782 0.969381 0.245561 1 0.5 0 1
210 1 66.4723 62.1425 0 -12.7937 62.1425 0 -211.997 -28.1619 23.617 -95.4075 -0.856535 0.516088 1 0.5 0 1
211 1 60.6345 42.8308 0 60.6345 42.8308 0 317.893 189.63 -103.878 3.53033 0.996056 -0.0887272 1 0.5 0 1
212 1 22.9544 41.9417 0 181.486 41.9417 0 228.744 -509.186 -38.228 94.6958 -0.875293 0.483593 1 0.5 0 1
213 1 69.9184 65.0212 0 69.9184 65.0212 0 372.459 -457.573 -49.3195 98.3909 -0.614455 0.788952 1 0.5 0 1
214 1 25.123 56.8548 0 25.123 56.8548 0 107.158 -815.634 27.1208 -136.552 0.573408 -0.81927 1 0.5 0 1
215 1 55.2586 60.7972 0 55.2586 -18.4688 0 -235.924 -119.121 28.9741 37.9529 0.938032 0.34655 1 0.5 0 1
216 1 15.1653 47.7365 0 15.1653 127.002 0 27.2165 -104.769 -78.4701 -18.0507 -0.766191 0.642613 1 0.5 0 1
217 1 75.203 9.86893 0 154.469 89.1349 0 257.298 -290.263 67.9209 -48.298 0.91771 0.397251 1 0.5 0 1
218 1 45.8963 49.2647 0 45.8963 49.2647 0 302.561 74.4699 -207.764 8.15107 -0.899486 -0.43695 1 0.5 0 1
219 1 53.0214 44.9877 0 53.0214 44.9877 0 -130.338 -36.683 -82.1135 17.6179 -0.801467 -0.598039 1 0.5 0 1
220 1 63.3423 67.439 0 63.3423 -91.093 0 -621.997 -502.468 -105.538 42.7928 0.625917 0.77989 1 0.5 0 1
221 1 49.1668 23.0385 0 -30.0992 181.57 0 -239.982 -244.974 -101.502 -227.513 0.0420665 -0.999115 1 0.5 0 1
222 1 42.1365 31.836 0 42.1365 31.836 0 730.075 -309.957 -111.291 60.6411 0.868753 -0.495246 1 0.5 0 1
223 1 71.889 37.4553 0 -7.37704 37.4553 0 -435.208 -297.712 56.689 -154.079 0.259216 -0.965819 1 0.5 0 1
224 1 76.3497 61.6961 0 -2.91632 61.6961 0 -73.6379 -450.741 140.645 -138.153 -0.245912 -0.969292 1 0.5 0 1
225 1 12.2651 26.7555 0 91.5311 -52.5105 0 -26.7742 480.091 35.8458 99.6668 0.022375 -0.99975 1 0.5 0 1
226 1 28.7768 69.9125 0 -50.4892 -9.35347 0 -529.841 61.1715 -17.5988 -43.5088 -0.823879 -0.566765 1 0.5 0 1
227 1 1.35999 37.6935 0 80.626 37.6935 0 -589.775 -336.462 80.4368 -82.5084 -0.55249 -0.833519 1 0.5 0 1
228 1 14.881 65.0286 0 -64.385 -14.2374 0 -792.481 -415.607 25.7421 244.652 -0.427622 -0.903957 1 0.5 0 1
229 1 51.2269 40.7973 0 51.2269 40.7973 0 -530.273 839.339 40.9888 -24.6721 -0.237708 -0.971337 1 0.5 0 1
230 1 51.7497 39.1386 0 51.7497 118.405 0 409.384 -19.0766 -213.672 221.114 -0.851255 0.524753 1 0.5 0 1
231 1 4.39731 24.1745 0 4.39731 103.44 0 -170.768 -931.772 122.201 31.6804 0.193162 0.981167 1 0.5 0 1
232 1 46.7696 25.4773 0 46.7696 -53.7887 0 71.0148 387.891 37.6862 -13.3942 0.939028 0.343841 1 0.5 0 1
233 1 7.22652 46.248 0 7.22652 46.248 0 376.681 391.502 -259.172 180.38 0.373696 0.927551 1 0.5 0 1
234 1 64.4523 71.4908 0 64.4523 -7.77515 0 -57.0311 -195.485 -53.1533 -8.99404 0.924858 0.380313 1 0.5 0 1
235 1 23.7408 53.8606 0 23.7408 133.127 0 -72.7397 485.537 -74.3076 -130.165 -0.867958 0.496638 1 0.5 0 1
236 1 55.6725 65.9528 0 134.938 -13.3132 0 -208.457 150.311 137.416 -18.6207 0.870273 -0.492569 1 0.5 0 1
237 1 69.2251 72.3437 0 69.2251 -6.92226 0 91.8236 -64.8932 12.5352 50.1218 -0.358023 -0.933713 1 0.5 0 1
238 1 68.9655 21.8959 0 68.9655 101.162 0 -351.97 428.799 12.4139 191.034 0.611187 0.791486 1 0.5 0 1
239 1 3.37596 43.1474 0 82.642 43.1474 0 -338.303 288.112 83.7254 14.9131 0.759202 -0.650855 1 0.5 0 1
240 1 71.8278 18.2396 0 71.8278 18.2396 0 -308.71 -54.4932 -149.833 -106.99 0.749149 -0.662402 1 0.5 0 1
241 1 47.778 36.7085 0 47.778 36.7085 0 857.63 93.1237 36.8728 -102.44 -0.120521 -0.992711 1 0.5 0 1
242 1 5.5641 63.4928 0 84.8301 -15.7732 0 99.3917 -158.455 -13.8751 4.34042 0.840937 0.541132 1 0.5 0 1
243 1 60.3265 71.7361 0 -98.2055 71.7361 0 -394.087 302.382 -35.7375 -89.5496 -0.817603 -0.575783 1 0.5 0 1
244 1 60.5469 25.6207 0 60.5469 104.887 0 172.38 -238.673 99.4594 23.8225 0.741591 -0.670852 1 0.5 0 1
245 1 56.3365 51.3109 0 56.3365 51.3109 0 -141.999 -584.246 -82.5806 3.32822 -0.169037 -0.98561 1 0.5 0 1
246 1 48.8042 41.8491 0 48.8042 41.8491 0 265.228 126.539 -86.5676 35.0649 -0.0343309 -0.999411 1 0.5 0 1
247 1 67.3787 54.4337 0 67.3787 -24.8323 0 511.089 964.002 -156.754 177.09 0.492307 -0.870421 1 0.5 0 1
248 1 34.9395 11.1759 0 -44.3265 11.1759 0 -195.693 -19.4706 27.6273 -76.5603 0.942374 -0.33456 1 0.5 0 1
249 1 37.3713 44.1269 0 116.637 -35.1391 0 -462.484 -114.861 -30.7001 -94.4204 0.999578 0.0290569 1 0.5 0 1
250 1 55.2699 67.7288 0 213.802 67.7288 0 -5.22866 -191.183 -8.47223 4.44892 0.729111 -0.684395 1 0.5 0 1
251 1 63.3727 16.1973 0 63.3727 174.729 0 189.269 -1129.35 -186.843 14.6239 0.888196 0.459464 1 0.5 0 1
252 1 60.6569 21.9033 0 60.6569 101.169 0 -100.877 -206.788 144.62 95.6855 -0.931218 -0.364462 1 0.5 0 1
253 1 17.0141 49.6791 0 17.0141 49.6791 0 -120.161 624.223 -17.6174 117.125 -0.986785 -0.162034 1 0.5 0 1
254 1 47.1829 33.6952 0 47.1829 112.961 0 481.635 -157.25 -184.413 78.6598 -0.1876 -0.982245 1 0.5 0 1
255 1 1.5919 35.0738 0 80.8579 114.34 0 -444.107 -553.642 62.2569 -90.5379 0.556181 0.831061 1 0.5 0 1
256 1 68.5576 42.727 0 -10.7084 42.727 0 -141.722 347.538 -24.3127 205.025 -0.953342 0.301892 1 0.5 0 1
257 1 7.66981 39.052 0 7.66981 118.318 0 81.2483 -559.226 -51.7147 50.9756 -0.999768 -0.0215578 1 0.5 0 1
258 1 7.01029 27.7593 0 7.01029 -51.5067 0 118.797 -751.448 -70.3216 19.3678 0.183464 0.983026 1 0.5 0 1
259 1 36.2056 42.567 0 36.2056 42.567 0 -277.017 -45.4671 -10.2077 -110.722 0.117197 -0.993109 1 0.5 0 1
260 1 70.3597 70.731 0 149.626 -8.53504 0 172.55 -30.8735 6.18473 17.2441 0.844927 0.534882 1 0.5 0 1
261 1 10.6118 23.4901 0 10.6118 23.4901 0 106.126 103.582 98.0535 -149.505 -0.991232 0.132136 1 0.5 0 1
262 1 56.9152 60.2497 0 136.181 -19.0163 0 -80.3073 -139.489 -12.7141 -58.8657 -0.457511 -0.889204 1 0.5 0 1
263 1 77.6898 73.6195 0 -80.8422 -84.9125 0 177.467 -503.879 -129.346 4.22659 0.693975 -0.719999 1 0.5 0 1
264 1 18.9861 39.5569 0 177.518 -39.7091 0 -271.274 -465.77 -100.831 27.7631 -0.999501 0.031583 1 0.5 0 1
265 1 52.5297 29.3278 0 52.5297 108.594 0 530.279 969.603 -15.0728 -198.564 0.469187 -0.883099 1 0.5 0 1
266 1 55.8646 52.9511 0 55.8646 52.9511 0 -695.811 -471.306 10.8206 225.522 0.410621 0.911806 1 0.5 0 1
267 1 73.1299 63.3661 0 -6.13606 -15.8999 0 259.068 -96.5392 -23.3294 38.9832 0.137507 -0.990501 1 0.5 0 1
268 1 67.0165 60.5465 0 67.0165 60.5465 0 -653.058 312.842 270.636 -104.388 0.944673 -0.328012 1 0.5 0 1
269 1 17.697 55.9795 0 96.963 55.9795 0 181.521 787.769 -166.311 -64.8708 -0.248808 0.968553 1 0.5 0 1
270 1 30.1082 8.20465 0 30.1082 8.20465 0 675.397 111.707 -106.594 7.43936 -0.986304 0.164937 1 0.5 0 1
271 1 73.1508 9.36799 0 73.1508 9.36799 0 -133.289 -153.538 -45.6458 14.6991 0.327337 -0.944908 1 0.5 0 1
272 1 50.7774 38.8288 0 50.7774 38.8288 0 152.809 309.725 279.233 -115.638 0.999956 -0.00943114 1 0.5 0 1
273 1 59.8268 50.529 0 59.8268 50.529 0 -401.541 -577.79 -121.457 47.9853 -0.668399 0.743803 1 0.5 0 1
274 1 6.82402 10.3632 0 86.09 10.3632 0 792.099 769.759 45.5666 26.7764 0.995852 0.0909883 1 0.5 0 1
275 1 8.21164 63.9037 0 87.4776 -15.3623 0 -332.163 -415.946 213.842 -60.8806 0.683071 0.730352 1 0.5 0 1
276 1 57.6146 45.5526 0 57.6146 45.5526 0 104.303 448.077 132.492 -38.227 -0.605202 0.796072 1 0.5 0 1
277 1 13.0882 5.05019 0 13.0882 5.05019 0 -918.345 238.106 99.3367 -11.4989 0.993367 -0.114989 1 0.5 0 1
278 1 10.0232 33.3409 0 -69.2428 112.607 0 -10.8463 -38.3965 36.7267 -69.5619 -0.0421998 -0.999109 1 0.5 0 1
279 1 19.5692 44.1538 0 98.8352 -114.378 0 100.951 -459.053 -44.7994 1.51471 -0.968515 0.248955 1 0.5 0 1
280 1 1.97937 74.5172 0 -77.2866 -84.0148 0 31.7244 354.425 203.183 -41.6609 0.208662 -0.977988 1 0.5 0 1
281 1 68.7488 56.6624 0 68.7488 56.6624 0 325.131 143.865 -44.972 -163.775 -0.777638 0.628712 1 0.5 0 1
282 1 47.3738 47.8687 0 47.3738 -31.3973 0 62.1055 630.142 -98.3425 112.53 -0.366428 -0.930447 1 0.5 0 1
283 1 68.8314 32.0539 0 -10.4346 111.32 0 364.22 -697.221 -39.698 150.58 -0.716496 -0.697591 1 0.5 0 1
284 1 5.76598 30.0864 0 5.76598 109.352 0 -178.916 -568.664 -64.0261 100.191 0.67488 0.737927 1 0.5 0 1