ITEM: TIMESTEP
170000
ITEM: NUMBER OF ATOMS
4000
ITEM: BOX BOUNDS pp pp pp
0.0000000000000000e+00 7.9266000000000005e+01
0.0000000000000000e+00 7.9266000000000005e+01
-5.0000000000000000e-01 5.0000000000000000e-01
ITEM: ATOMS id type x y z xu yu zu vx vy fx fy mux muy mu radius omegaz mass
1 1 5.76416 74.3768 0 85.0302 74.3768 0 -372.725 24.0635 8.20477 -28.6055 -0.0993506 -0.995052 1 0.5 0 1
2 1 19.4213 61.3322 0 19.4213 -17.9338 0 -449.833 682.615 14.627 37.2108 0.960899 -0.276899 1 0.5 0 1
3 1 33.3871 51.0595 0 33.3871 -28.2065 0 -768.724 -81.2779 72.0361 -45.1512 -0.977389 0.211451 1 0.5 0 1
4 1 51.3094 24.3926 0 51.3094 103.659 0 -705.112 -423.681 -17.7147 -111.017 -0.849932 -0.526892 1 0.5 0 1
5 1 8.15535 29.3634 0 8.15535 29.3634 0 -998.702 226.61 -42.0353 -61.9834 -0.979058 -0.203582 1 0.5 0 1
6 1 76.256 25.7735 0 -3.01004 25.7735 0 755.963 176.235 -11.846 -80.6321 -0.875649 0.482948 1 0.5 0 1
7 1 69.3487 46.5076 0 69.3487 46.5076 0 -318.391 -52.7002 145.29 234.743 -0.890485 0.455012 1 0.5 0 1
8 1 28.0983 59.6364 0 28.0983 -19.6296 0 190.59 -135.994 -51.2781 -14.8452 -0.737174 -0.675703 1 0.5 0 1
9 1 67.0687 22.9841 0 67.0687 22.9841 0 -285.014 690.963 -51.4048 82.2745 -0.518109 -0.855315 1 0.5 0 1
10 1 30.0706 53.8667 0 30.0706 53.8667 0 223.782 617.261 -232.074 -85.4703 -0.972123 0.234473 1 0.5 0 1
11 1 41.8861 31.6783 0 -37.3799 31.6783 0 212.52 -297.768 35.6352 -93.4352 0.356352 -0.934352 1 0.5 0 1
12 1 1.46211 10.3301 0 80.7281 89.5961 0 90.8827 -365.834 64.3093 22.5157 0.354721 0.934972 1 0.5 0 1
13 1 24.8453 40.3298 0 24.8453 40.3298 0 -258.172 -62.9215 67.2094 -74.0466 0.672094 -0.740466 1 0.5 0 1
14 1 24.9216 19.3497 0 -54.3444 19.3497 0 390.645 -182.703 80.5447 56.9341 -0.980964 -0.19419 1 0.5 0 1
15 1 16.6838 40.8804 0 16.6838 40.8804 0 -195.512 -74.6333 -79.682 12.0346 -0.941833 -0.336081 1 0.5 0 1
16 1 34.8879 68.7328 0 -44.3781 -10.5332 0 -1531.14 -323.81 37.9202 -27.6164 0.37973 -0.925097 1 0.5 0 1
17 1 64.8689 0.351686 0 64.8689 79.6177 0 -191.299 -490.253 94.6965 16.7288 0.99113 0.132895 1 0.5 0 1
18 1 24.5088 33.4503 0 24.5088 33.4503 0 -208.768 -243.391 8.58926 99.6304 0.0858926 0.996304 1 0.5 0 1
19 1 7.50431 38.1388 0 7.50431 38.1388 0 179.917 -4.07205 -57.8175 52.8224 -0.948758 -0.316004 1 0.5 0 1
20 1 22.8211 56.179 0 22.8211 56.179 0 105.986 619.086 -4.48045 -25.6835 0.987224 0.159339 1 0.5 0 1
21 1 26.8045 16.3149 0 26.8045 16.3149 0 -853.012 -386.053 -28.7923 -76.8333 -0.699023 0.715099 1 0.5 0 1
22 1 68.0311 23.3167 0 68.0311 23.3167 0 368.977 230.087 17.4644 15.2041 0.423065 -0.9061 1 0.5 0 1
23 1 74.8768 72.8395 0 74.8768 -6.42647 0 246.16 232.802 84.468 53.5271 0.84468 0.535271 1 0.5 0 1
24 1 66.5243 54.5324 0 66.5243 -24.7336 0 -417.649 252.217 -32.2796 -22.9057 0.0878348 -0.996135 1 0.5 0 1
25 1 32.8995 51.9683 0 -46.3665 -27.2977 0 -305.555 -55.8215 -100.024 20.7943 -0.396031 -0.918237 1 0.5 0 1
26 1 32.9109 37.2557 0 32.9109 -42.0103 0 -528.466 766.882 33.018 -40.0807 0.995239 -0.0974688 1 0.5 0 1
27 1 9.14093 69.5163 0 9.14093 69.5163 0 210.735 -122.332 22.9687 97.3264 0.229687 0.973264 1 0.5 0 1
28 1 23.0728 70.3502 0 23.0728 70.3502 0 -267.85 176.83 30.2878 205.251 -0.918541 0.395327 1 0.5 0 1
29 1 77.7933 36.5345 0 -1.47266 36.5345 0 1196.33 -450.256 -485.485 189.775 -0.904755 -0.425933 1 0.5 0 1
30 1 55.6615 23.0866 0 55.6615 102.353 0 -289.358 -99.1938 -43.9485 79.3746 0.723831 0.689977 1 0.5 0 1
31 1 76.7612 22.0971 0 -2.50477 22.0971 0 558.953 186.907 45.7757 88.6371 -0.953264 -0.302139 1 0.5 0 1
32 1 41.0076 46.5598 0 41.0076 46.5598 0 -341.128 -537.485 16.8313 -78.6367 -0.0349916 -0.999388 1 0.5 0 1
33 1 64.8063 55.6648 0 64.8063 -23.6012 0 470.8 -247.649 -68.4124 40.555 0.901386 0.433017 1 0.5 0 1
34 1 8.62647 41.7292 0 87.8925 41.7292 0 532.12 585.922 7.49749 -42.5393 -0.112836 0.993614 1 0.5 0 1
35 1 49.1607 63.3991 0 -30.1053 63.3991 0 624.295 -35.8119 1.85702 -13.2056 -0.990305 0.138908 1 0.5 0 1
36 1 61.0776 54.907 0 61.0776 -24.359 0 -300.337 -30.5526 -51.57 -69.215 0.610875 -0.791727 1 0.5 0 1
37 1 73.0105 39.8682 0 73.0105 39.8682 0 36.8979 -95.4353 2.96542 24.7953 0.609941 0.792447 1 0.5 0 1
38 1 18.3607 61.2356 0 97.6267 61.2356 0 846.005 237.51 5.66681 -47.1672 0.328121 0.944636 1 0.5 0 1
39 1 37.3556 41.0778 0 37.3556 -38.1882 0 -335.061 73.3026 -24.951 -64.6201 0.0901336 -0.99593 1 0.5 0 1
40 1 24.925 23.4716 0 -54.341 23.4716 0 -428.446 -215.918 196.668 -2.11382 -0.111088 0.993811 1 0.5 0 1
41 1 70.5149 49.8101 0 70.5149 49.8101 0 253.38 -64.9589 127.545 -116.582 -0.297639 -0.954679 1 0.5 0 1
42 1 74.5177 57.6011 0 -4.74829 57.6011 0 140.251 -727.304 -173.501 6.53582 -0.55246 -0.833539 1 0.5 0 1
43 1 45.6261 68.3282 0 -33.6399 68.3282 0 41.3745 -378.895 31.2878 -51.8691 -0.955398 0.29532 1 0.5 0 1
44 1 56.0548 17.8244 0 56.0548 97.0904 0 116.329 465.514 -30.9319 77.0488 0.662388 0.749161 1 0.5 0 1
45 1 42.4772 4.10383 0 42.4772 4.10383 0 -747.938 39.684 -69.1504 -67.6992 -0.379783 -0.925076 1 0.5 0 1
46 1 10.1765 38.5873 0 10.1765 38.5873 0 275.21 -680.45 -307.935 205.268 0.758068 0.652176 1 0.5 0 1
47 1 25.7467 72.982 0 25.7467 -6.28395 0 36.5882 53.2312 74.1775 -125.668 0.947666 0.319262 1 0.5 0 1
48 1 31.2515 41.5374 0 31.2515 41.5374 0 -66.8391 -229.109 3.1947 106.306 -0.999777 -0.0210945 1 0.5 0 1
49 1 26.654 10.9871 0 105.92 90.2531 0 -159.664 119.575 78.3651 -73.8947 0.483127 -0.87555 1 0.5 0 1
50 1 55.7056 30.5541 0 55.7056 30.5541 0 -686.089 583.436 59.5098 -124.233 -0.153756 0.988109 1 0.5 0 1
51 1 72.7585 16.551 0 -6.50749 16.551 0 379.009 -59.6252 -365.13 22.9288 -0.823197 0.567756 1 0.5 0 1
52 1 17.3615 12.3894 0 96.6275 12.3894 0 40.3985 325.548 -81.9963 30.3602 -0.528757 0.848773 1 0.5 0 1
53 1 28.7429 43.0025 0 28.7429 122.269 0 32.5141 367.626 -27.8623 78.8828 -0.372488 0.928037 1 0.5 0 1
54 1 58.3981 27.0575 0 58.3981 27.0575 0 172.838 -147.314 -77.4564 228.301 0.1891 -0.981958 1 0.5 0 1
55 1 24.0364 10.1319 0 103.302 89.3979 0 801.202 -420.356 95.7342 125.804 0.549639 0.835402 1 0.5 0 1
56 1 28.8066 52.5915 0 28.8066 52.5915 0 -122.632 -530.431 -19.6458 141.413 -0.747372 0.664406 1 0.5 0 1
57 1 30.7795 78.6348 0 30.7795 78.6348 0 -60.954 -134.652 64.0549 37.2027 -0.792015 0.610501 1 0.5 0 1
58 1 72.5204 24.2414 0 -6.74558 24.2414 0 -551.781 1316.92 -38.1479 -1.67238 -0.750857 0.660464 1 0.5 0 1
59 1 57.856 32.344 0 57.856 32.344 0 710.904 105.228 -81.0336 -124.232 -0.692101 0.721801 1 0.5 0 1
60 1 59.5474 37.5056 0 59.5474 37.5056 0 -141.84 680.946 -72.9489 -80.9353 0.98425 0.176781 1 0.5 0 1
61 1 61.9055 41.0678 0 61.9055 41.0678 0 182.416 -148.484 -49.1407 -69.342 -0.0594253 0.998233 1 0.5 0 1
62 1 4.54698 73.5287 0 83.813 -5.73734 0 94.8486 783.599 81.5251 -111.543 0.997096 0.0761588 1 0.5 0 1
63 1 42.5749 28.1759 0 -36.6911 28.1759 0 -638.716 427.868 -96.0618 -30.1565 -0.951989 -0.306133 1 0.5 0 1
64 1 71.4272 5.9096 0 71.4272 85.1756 0 623.692 1167.75 70.3306 71.0887 0.703306 0.710887 1 0.5 0 1
65 1 17.828 29.0897 0 97.094 108.356 0 -813.753 160.486 80.4184 59.4381 0.804184 0.594381 1 0.5 0 1
66 1 18.0786 9.59335 0 97.3446 88.8593 0 446.134 226.342 33.9013 71.9822 0.582124 0.8131 1 0.5 0 1
67 1 57.2791 39.4507 0 57.2791 39.4507 0 -515.381 -176.742 167.66 51.617 0.728739 0.684792 1 0.5 0 1
68 1 32.2764 62.9113 0 32.2764 62.9113 0 -100.045 578.341 4.55314 -37.3081 -0.788798 -0.614653 1 0.5 0 1
69 1 22.4789 59.002 0 22.4789 59.002 0 -281.947 -453.787 -143.49 -24.5286 -0.756407 -0.654101 1 0.5 0 1
70 1 50.3459 35.9247 0 50.3459 115.191 0 159.037 -410.831 51.3853 -87.4989 0.97354 -0.228516 1 0.5 0 1
71 1 26.5029 14.579 0 26.5029 14.579 0 -9.92355 -898.935 55.3973 -24.4858 0.564391 -0.825508 1 0.5 0 1
72 1 3.90411 55.9436 0 3.90411 55.9436 0 -204.468 -39.5991 73.7663 7.78832 -0.750655 -0.660695 1 0.5 0 1
73 1 36.0942 9.38138 0 36.0942 9.38138 0 -235.682 -433.951 -87.8759 47.7266 -0.878759 0.477266 1 0.5 0 1
74 1 6.58512 1.78814 0 85.8511 81.0541 0 578.404 338.828 -30.0707 37.4832 -0.184813 0.982774 1 0.5 0 1
75 1 0.130807 35.4811 0 0.130807 35.4811 0 513.227 -127.677 -123.73 104.026 -0.590557 0.806996 1 0.5 0 1
76 1 58.6969 31.1665 0 -20.5691 31.1665 0 -560.736 -151.469 -80.1591 41.2813 -0.890447 0.455087 1 0.5 0 1
77 1 2.71981 32.1038 0 2.71981 32.1038 0 -122.55 306.57 -54.5126 -426.495 0.186304 0.982492 1 0.5 0 1
78 1 13.0324 63.1083 0 13.0324 63.1083 0 -283.305 -180.752 -12.2124 22.4247 0.569891 0.82172 1 0.5 0 1
79 1 22.4614 0.326889 0 22.4614 79.5929 0 135.159 -798.868 22.7162 5.73349 -0.947902 -0.318563 1 0.5 0 1
80 1 0.507371 22.038 0 0.507371 -57.228 0 -434.161 -406.844 -30.1058 -6.02879 -0.999826 -0.0186587 1 0.5 0 1
81 1 49.77 31.8174 0 129.036 31.8174 0 220.83 -710.193 -38.1402 31.6039 0.273336 -0.961918 1 0.5 0 1
82 1 4.75315 36.8603 0 4.75315 36.8603 0 -247.037 873.229 -122.539 -91.5501 0.549005 0.835819 1 0.5 0 1
83 1 74.5387 71.5398 0 74.5387 71.5398 0 636.653 -56.0743 82.3781 56.6908 0.823781 0.566908 1 0.5 0 1
84 1 0.10308 42.8627 0 0.10308 42.8627 0 -1692.35 -178.98 142.99 -42.8771 -0.202178 -0.979349 1 0.5 0 1
85 1 23.8004 60.1535 0 23.8004 -19.1125 0 -1158.61 -767.557 -27.4624 82.0803 0.690677 -0.723164 1 0.5 0 1
86 1 14.3574 29.1534 0 14.3574 29.1534 0 -123.282 -945.753 36.942 92.9262 0.36942 0.929262 1 0.5 0 1
87 1 31.8351 45.2529 0 31.8351 45.2529 0 83.3312 -524.359 -132.255 98.7763 -0.932302 0.361681 1 0.5 0 1
88 1 29.5911 26.9143 0 29.5911 26.9143 0 403.368 401.009 -50.2155 -86.4778 -0.502155 -0.864778 1 0.5 0 1
89 1 27.7052 65.7475 0 27.7052 65.7475 0 608.124 192.339 1.19668 28.4036 0.817851 -0.57543 1 0.5 0 1
90 1 8.06439 34.5615 0 8.06439 34.5615 0 -119.098 32.8903 -141.747 118.748 -0.470907 -0.882183 1 0.5 0 1
91 1 13.2787 58.3935 0 13.2787 -20.8725 0 129.481 -1156.32 -147.752 49.5897 0.730403 -0.683017 1 0.5 0 1
92 1 3.55891 52.8545 0 3.55891 52.8545 0 -998.829 -312.219 96.2331 28.4555 -0.79494 0.606689 1 0.5 0 1
93 1 4.43666 43.3087 0 4.43666 43.3087 0 -306.594 353.086 53.5693 -49.8802 -0.00940373 0.999956 1 0.5 0 1
94 1 73.8942 33.9318 0 73.8942 33.9318 0 364.36 -664.954 37.0309 -50.5961 0.990025 0.140889 1 0.5 0 1
95 1 69.3069 45.5632 0 69.3069 45.5632 0 -87.9059 -140.455 11.2035 -151.318 0.912818 -0.408367 1 0.5 0 1
96 1 57.075 38.4811 0 57.075 38.4811 0 766.723 -182.427 181.807 -97.3987 0.639654 0.768663 1 0.5 0 1
97 1 56.587 29.9429 0 56.587 29.9429 0 0.69101 40.9196 -52.1431 90.0706 -0.570143 -0.821546 1 0.5 0 1
98 1 26.7503 21.3565 0 26.7503 100.623 0 584.58 430.404 -38.3892 -16.9047 0.874202 -0.485563 1 0.5 0 1
99 1 40.1916 69.7027 0 40.1916 -9.56326 0 381.67 -292.481 -30.8269 -82.4754 -0.481877 -0.876239 1 0.5 0 1
100 1 75.7327 41.0532 0 75.7327 41.0532 0 351.351 -114.739 -163.166 -117.004 -0.501256 -0.865299 1 0.5 0 1
101 1 49.3735 56.3958 0 49.3735 -22.8702 0 114.122 303.916 44.8614 -133.635 0.223523 -0.974699 1 0.5 0 1
102 1 2.4568 40.3331 0 2.4568 40.3331 0 -768.721 -671.266 -79.5356 -34.3323 -0.967898 0.251342 1 0.5 0 1
103 1 67.2938 3.62483 0 -11.9722 82.8908 0 -59.7784 140.064 -114.254 65.3043 -0.966404 0.257029 1 0.5 0 1
104 1 56.5469 40.1179 0 56.5469 119.384 0 -198.807 200.72 -47.3328 13.9335 0.241575 0.970382 1 0.5 0 1
105 1 44.3799 64.2959 0 -34.8861 -14.9701 0 667.269 226.824 -21.4678 72.9727 0.0155788 0.999879 1 0.5 0 1
106 1 6.98901 18.0246 0 6.98901 18.0246 0 308.355 -143.818 -41.1148 -91.1569 -0.411148 -0.911569 1 0.5 0 1
107 1 66.525 32.8805 0 66.525 32.8805 0 -745.983 -390.361 156.587 -49.5829 -0.760775 0.649015 1 0.5 0 1
108 1 3.60715 34.4877 0 3.60715 113.754 0 -864.269 -291.513 79.5376 130.213 0.633202 0.773987 1 0.5 0 1
109 1 53.4701 62.5286 0 -25.7959 62.5286 0 -25.5488 -207.223 -99.9242 3.89234 -0.999242 0.0389234 1 0.5 0 1
110 1 38.1357 31.0528 0 38.1357 31.0528 0 -332.685 81.463 -76.4966 -106.931 0.965585 -0.260089 1 0.5 0 1
111 1 44.269 37.8588 0 44.269 37.8588 0 207.282 -353.57 16.1263 98.6912 0.161263 0.986912 1 0.5 0 1
112 1 12.3491 45.859 0 12.3491 45.859 0 -193.603 28.9154 -1.07971 40.4976 -0.941382 0.337344 1 0.5 0 1
113 1 40.6146 44.1754 0 -38.6514 44.1754 0 -304.561 689.572 6.91422 99.7607 0.0691422 0.997607 1 0.5 0 1
114 1 41.6032 56.8827 0 41.6032 56.8827 0 356.458 293.562 96.5008 26.2221 0.965008 0.262221 1 0.5 0 1
115 1 49.1828 12.2045 0 -30.0832 12.2045 0 -127.501 33.4578 -98.5545 16.9411 -0.985545 0.169411 1 0.5 0 1
116 1 31.6114 70.836 0 31.6114 -8.43005 0 56.0183 -286.621 -26.4358 61.3619 0.591965 -0.805964 1 0.5 0 1
117 1 38.5363 53.8767 0 38.5363 53.8767 0 104.54 729.34 -101.891 -55.1799 -0.969001 -0.247059 1 0.5 0 1
118 1 57.8287 37.8075 0 57.8287 37.8075 0 -1059.01 192.771 -23.4032 28.0085 0.850558 -0.525882 1 0.5 0 1
119 1 55.4578 12.586 0 55.4578 12.586 0 379.022 -1.78412 69.8697 -105.649 0.753945 -0.656938 1 0.5 0 1
120 1 30.9839 22.9562 0 110.25 22.9562 0 -709.911 -45.3197 92.7306 70.5663 0.79167 0.610949 1 0.5 0 1
121 1 28.1673 12.4264 0 -51.0987 12.4264 0 -52.3474 -514.814 8.99111 -92.1679 -0.259797 -0.965663 1 0.5 0 1
122 1 46.1064 22.5991 0 46.1064 101.865 0 -550.976 -50.046 23.7902 97.1289 0.237902 0.971289 1 0.5 0 1
123 1 0.155243 28.7552 0 0.155243 28.7552 0 -76.9061 -849.545 -243.449 -223.183 -0.323133 0.946354 1 0.5 0 1
124 1 33.8442 54.7689 0 33.8442 54.7689 0 295.11 628.903 1.15075 -130.388 -0.9977 -0.0677784 1 0.5 0 1
125 1 67.268 24.928 0 67.268 24.928 0 -48.82 330.212 143.801 89.1626 0.935512 0.353296 1 0.5 0 1
126 1 12.4613 18.7328 0 91.7273 97.9988 0 836.655 97.6214 -6.85778 99.7646 -0.0685778 0.997646 1 0.5 0 1
127 1 63.0013 26.8839 0 63.0013 106.15 0 409.345 -188.424 -49.1549 191.053 0.959193 0.282751 1 0.5 0 1
128 1 15.506 35.65 0 -63.76 35.65 0 368.996 -564.037 49.4738 -55.5408 -0.805542 -0.592539 1 0.5 0 1
129 1 68.3083 54.3978 0 68.3083 -24.8682 0 707.887 335.315 -172.292 17.4167 0.482942 -0.875652 1 0.5 0 1
130 1 74.3294 53.541 0 74.3294 -25.725 0 207.819 325.665 -367.309 91.5276 -0.373292 -0.927714 1 0.5 0 1
131 1 61.0075 76.6093 0 -18.2585 76.6093 0 -110.517 532.772 -43.5953 98.2075 -0.533468 0.84582 1 0.5 0 1
132 1 65.8029 28.1147 0 -13.4631 107.381 0 -17.3172 -321.366 -109.486 80.1801 0.104652 0.994509 1 0.5 0 1
133 1 56.6966 30.9461 0 56.6966 110.212 0 -667.596 -363.624 106.745 -109.313 -0.806842 0.590767 1 0.5 0 1
134 1 33.7398 56.5739 0 33.7398 56.5739 0 206.004 145.834 -46.3238 19.1061 0.225097 -0.974336 1 0.5 0 1
135 1 33.8714 37.6938 0 33.8714 116.96 0 218.791 -108.31 -9.52346 95.2919 -0.760293 0.64958 1 0.5 0 1
136 1 31.0477 39.4311 0 31.0477 118.697 0 -1083.57 -589.666 14.7053 -16.3261 -0.99727 -0.0738347 1 0.5 0 1
137 1 43.3065 54.7099 0 122.573 54.7099 0 91.9524 -557.612 105.466 -12.2667 0.675261 0.737579 1 0.5 0 1
138 1 19.4793 5.6074 0 19.4793 5.6074 0 -944.755 177.833 70.9287 85.4955 -0.974714 0.223454 1 0.5 0 1
139 1 33.0189 62.1843 0 33.0189 -17.0817 0 -93.5754 -298.291 -163.123 -42.6901 -0.777458 -0.628935 1 0.5 0 1
140 1 29.5893 0.875005 0 29.5893 0.875005 0 129.259 458.394 -111.575 -46.7765 -0.997977 0.0635689 1 0.5 0 1
141 1 10.5673 52.2187 0 10.5673 52.2187 0 463.056 325.436 92.4597 -54.3824 -0.0433031 -0.999062 1 0.5 0 1
142 1 18.0889 66.458 0 18.0889 66.458 0 472.978 -493.42 -41.114 63.5078 -0.0970636 0.995278 1 0.5 0 1
143 1 14.7401 37.5888 0 14.7401 116.855 0 -618.249 -1290.61 5.76644 17.6689 -0.684159 0.729333 1 0.5 0 1
144 1 51.8935 47.5101 0 51.8935 -31.7559 0 413.305 447.859 11.1074 46.866 -0.58471 -0.811243 1 0.5 0 1
145 1 64.9204 14.3686 0 64.9204 93.6346 0 -468.147 -138.375 60.976 190.634 0.681475 0.731841 1 0.5 0 1
146 1 29.0999 78.2767 0 29.0999 -0.989343 0 177.303 819.592 160.326 -95.3619 0.719823 -0.694158 1 0.5 0 1
147 1 72.73 64.6262 0 72.73 -14.6398 0 -321.607 124.534 -78.6232 106.229 -0.12826 -0.991741 1 0.5 0 1
148 1 14.5768 10.1057 0 93.8428 10.1057 0 114.787 747.399 81.1293 3.22997 0.999565 0.0294844 1 0.5 0 1
149 1 76.7014 28.714 0 76.7014 107.98 0 661.261 208.694 113.841 42.7191 0.878793 0.477202 1 0.5 0 1
150 1 71.006 32.851 0 -8.26001 32.851 0 -728.998 300.123 94.7192 -152.856 -0.295285 0.955409 1 0.5 0 1
151 1 2.98613 55.5612 0 82.2521 -23.7048 0 -692.165 -400.92 52.6308 122.906 0.931741 -0.363125 1 0.5 0 1
152 1 24.8015 49.3226 0 24.8015 128.589 0 -137.303 -585.798 17.7526 -6.1089 0.911351 0.411629 1 0.5 0 1
153 1 76.2651 57.5059 0 76.2651 57.5059 0 1244.95 515.09 -92.1661 200.455 0.962213 -0.272297 1 0.5 0 1
154 1 4.65785 47.2836 0 4.65785 47.2836 0 859.587 -583.476 24.8489 85.5058 0.48103 -0.876704 1 0.5 0 1
155 1 13.2427 12.9274 0 -66.0233 12.9274 0 9.5353 356.907 -90.5607 -67.3234 -0.99888 0.0473126 1 0.5 0 1
156 1 76.1292 45.8721 0 76.1292 45.8721 0 308.77 1169.28 183.739 -116.002 -0.773417 0.633898 1 0.5 0 1
157 1 72.502 17.5047 0 -6.76398 17.5047 0 -132.291 88.7833 0.486571 90.657 -0.620673 0.784069 1 0.5 0 1
158 1 70.6643 36.2527 0 -8.6017 36.2527 0 227.335 -155.343 124.02 54.3007 -0.998264 -0.0589018 1 0.5 0 1
159 1 70.7192 11.6732 0 70.7192 90.9392 0 91.8896 -151.421 21.7255 -10.2847 -0.854343 0.51971 1 0.5 0 1
160 1 31.9825 76.0717 0 31.9825 -3.19426 0 348.554 -330.976 -14.8101 -71.731 -0.48129 0.876562 1 0.5 0 1
161 1 12.6643 64.5201 0 12.6643 -14.7459 0 49.5325 320.31 -44.4431 -17.3982 0.998231 0.0594571 1 0.5 0 1
162 1 7.18017 48.9366 0 7.18017 48.9366 0 -423.348 28.2516 -132.895 -73.2659 -0.778486 -0.627661 1 0.5 0 1
163 1 65.8457 45.6144 0 65.8457 45.6144 0 -484.359 -830.491 63.072 135.153 -0.524667 -0.851307 1 0.5 0 1
164 1 28.7189 45.6086 0 28.7189 45.6086 0 -59.6522 99.2961 100.061 15.2373 0.44016 -0.89792 1 0.5 0 1
165 1 38.8135 52.0276 0 38.8135 -27.2384 0 -156.11 -310.519 -47.0265 -11.4604 -0.997175 -0.0751074 1 0.5 0 1
166 1 12.9763 42.0631 0 12.9763 42.0631 0 -357.547 351.646 -78.8821 14.9594 -0.769116 -0.639109 1 0.5 0 1
167 1 63.4147 21.462 0 63.4147 21.462 0 -181.493 374.672 227.395 -387.58 -0.0278507 -0.999612 1 0.5 0 1
168 1 16.4766 16.5682 0 16.4766 95.8342 0 701.5 -215.915 -51.6945 49.553 -0.709797 0.704406 1 0.5 0 1
169 1 21.2757 41.8917 0 21.2757 121.158 0 -277.433 755.373 -33.3941 92.9169 -0.348497 0.93731 1 0.5 0 1
170 1 6.82098 12.5587 0 86.087 91.8247 0 -347.229 445.162 -53.9266 -12.2273 0.934657 0.35555 1 0.5 0 1
171 1 30.0726 33.757 0 109.339 33.757 0 181.348 -231.294 19.904 -24.5841 0.979096 0.203399 1 0.5 0 1
172 1 8.82237 52.2924 0 8.82237 -26.9736 0 -263.837 412.244 52.018 -167.5 -0.999763 0.0217759 1 0.5 0 1
173 1 34.9616 66.6443 0 34.9616 -12.6217 0 162.741 943.813 -41.45 -75.5672 -0.975024 -0.2221 1 0.5 0 1
174 1 9.7217 49.5753 0 9.7217 49.5753 0 -305.188 153.623 -95.5431 69.7625 -0.950677 0.310184 1 0.5 0 1
175 1 19.7167 14.844 0 19.7167 14.844 0 268.808 903.435 -98.9337 -75.6046 -0.813491 0.581577 1 0.5 0 1
176 1 11.5172 47.455 0 11.5172 47.455 0 33.7987 101.665 -41.995 -54.087 -0.944866 -0.327457 1 0.5 0 1
177 1 27.5687 8.76032 0 27.5687 88.0263 0 292.267 -55.9406 22.1981 -31.705 -0.991291 0.131693 1 0.5 0 1
178 1 61.7507 24.5731 0 -17.5153 103.839 0 415.871 230.501 133.214 25.8501 -0.628794 0.777572 1 0.5 0 1
179 1 4.41957 53.3129 0 4.41957 -25.9531 0 -260.291 -380.842 -53.8933 -75.5117 -0.594436 -0.804143 1 0.5 0 1
180 1 77.1879 39.0565 0 77.1879 39.0565 0 -674.657 536.272 298.421 -169.513 -0.446072 0.894997 1 0.5 0 1
181 1 56.6948 23.1783 0 56.6948 23.1783 0 -797.926 -261.601 62.2359 5.34138 -0.724813 -0.688946 1 0.5 0 1
182 1 14.2118 21.6582 0 14.2118 100.924 0 26.3523 -3.63792 -12.501 -37.9195 -0.107024 -0.994256 1 0.5 0 1
183 1 60.151 52.4048 0 60.151 -26.8612 0 -368.8 73.8433 33.4086 44.5008 0.998233 -0.0594283 1 0.5 0 1
184 1 66.713 39.2124 0 66.713 39.2124 0 -173.016 -141.582 80.4475 -87.1959 -0.895241 0.445582 1 0.5 0 1
185 1 13.684 37.4769 0 13.684 37.4769 0 -434.649 -445.198 -7.13143 46.8536 -0.688893 0.724863 1 0.5 0 1
186 1 17.3166 61.0531 0 17.3166 61.0531 0 -176.136 -447.549 -82.1889 51.525 -0.926365 0.376627 1 0.5 0 1
187 1 61.8782 32.0746 0 -17.3878 111.341 0 53.7362 270.477 151.091 52.5423 -0.00451199 0.99999 1 0.5 0 1
188 1 14.2294 68.4966 0 93.4954 68.4966 0 202.825 -330.909 -66.8012 0.72228 0.993645 0.112559 1 0.5 0 1
189 1 24.4912 14.5106 0 24.4912 14.5106 0 121.08 59.0223 315.118 28.3414 0.94894 0.315456 1 0.5 0 1
190 1 55.8972 72.3033 0 -23.3688 72.3033 0 144.326 664.995 -19.8224 -37.4595 -0.945831 -0.324659 1 0.5 0 1
191 1 52.5706 13.3824 0 131.837 13.3824 0 -668.25 -410.305 22.8591 76.7597 0.951312 0.308229 1 0.5 0 1
192 1 64.1922 34.6636 0 64.1922 34.6636 0 587.865 460.001 319.244 -42.454 0.63366 -0.773611 1 0.5 0 1
193 1 40.7553 14.7587 0 -38.5107 14.7587 0 -407.089 -54.545 -85.8043 51.3578 -0.858043 0.513578 1 0.5 0 1
194 1 29.65 57.6276 0 29.65 57.6276 0 725.426 600.021 -76.6891 -112.704 -0.629183 -0.777257 1 0.5 0 1
195 1 58.1078 24.1272 0 58.1078 24.1272 0 167.811 -246.165 -6.71768 38.8884 -0.93265 0.360783 1 0.5 0 1
196 1 62.1108 37.5438 0 62.1108 37.5438 0 883.313 -424.607 111.27 -17.4415 -0.874494 -0.485036 1 0.5 0 1
197 1 71.1231 58.8411 0 -8.1429 58.8411 0 -12.7324 236.695 27.0355 -122.96 0.283829 -0.958875 1 0.5 0 1
198 1 76.7304 42.4412 0 76.7304 42.4412 0 -130.395 -391.179 -38.953 21.4038 -0.975855 0.21842 1 0.5 0 1
199 1 65.745 73.3639 0 -13.521 -5.90206 0 151.605 626.756 18.4561 -59.3172 -0.10842 -0.994105 1 0.5 0 1
200 1 28.565 70.6028 0 28.565 70.6028 0 680.403 4.49322 52.6395 -172.938 0.609038 0.793141 1 0.5 0 1
201 1 5.01347 58.5056 0 5.01347 -20.7604 0 -256.839 590.611 57.4505 102.846 -0.334986 0.942223 1 0.5 0 1
202 1 60.1569 56.5033 0 -19.1091 -22.7627 0 478.11 -480.366 -70.4604 16.0663 -0.104045 -0.994573 1 0.5 0 1
203 1 61.708 77.4397 0 -17.558 77.4397 0 -605.52 648.997 -50.8679 -12.1233 -0.953985 -0.299854 1 0.5 0 1
204 1 48.3672 4.11524 0 48.3672 4.11524 0 -522.269 -287.586 69.8849 -42.3771 0.941974 -0.335686 1 0.5 0 1
205 1 24.3339 54.8078 0 24.3339 54.8078 0 -506.941 -306.287 124.566 34.9993 -0.983224 -0.182402 1 0.5 0 1
206 1 1.24745 55.8528 0 1.24745 -23.4132 0 -243.81 516.966 70.442 -130.101 -0.741129 -0.671363 1 0.5 0 1
207 1 17.5203 74.2191 0 17.5203 74.2191 0 97.8906 -355.717 79.2441 24.3562 0.652407 0.757869 1 0.5 0 1
208 1 37.9994 44.0087 0 37.9994 44.0087 0 8.404 579.235 -96.2949 -36.1361 -0.85228 -0.523086 1 0.5 0 1
209 1 40.6447 4.61988 0 40.6447 83.8859 0 487.557 201.931 -33.7766 -27.5218 -0.163016 0.986624 1 0.5 0 1
210 1 65.8455 59.2363 0 -13.4205 59.2363 0 -265.015 99.3191 -43.3356 -17.6067 -0.271058 -0.962563 1 0.5 0 1
211 1 64.1485 39.1998 0 64.1485 39.1998 0 -592.194 -685.724 -19.8697 32.674 0.879799 -0.475346 1 0.5 0 1
212 1 47.3276 67.9324 0 126.594 -11.3336 0 73.9391 77.9247 35.9288 4.70032 0.988284 -0.152625 1 0.5 0 1
213 1 68.6786 60.6838 0 68.6786 60.6838 0 366.316 8.02824 -13.3066 -107.151 0.999023 0.0442019 1 0.5 0 1
214 1 61.6571 23.555 0 61.6571 102.821 0 526.007 -143.321 -189.532 13.1442 0.787962 -0.615724 1 0.5 0 1
215 1 26.6287 73.5168 0 26.6287 -5.7492 0 -683.078 -1157.5 132.556 85.0473 0.798431 -0.602086 1 0.5 0 1
216 1 24.881 45.4996 0 24.881 124.766 0 -468.372 -479.786 -43.8284 -31.2684 -0.181379 0.983413 1 0.5 0 1
217 1 60.6343 77.6224 0 60.6343 -1.64365 0 196.95 474.014 56.1195 71.3103 0.94668 0.322174 1 0.5 0 1
218 1 51.5457 46.3456 0 51.5457 46.3456 0 -331.339 -5.09477 -51.7502 53.5305 0.978002 0.208593 1 0.5 0 1
219 1 55.7737 40.7314 0 55.7737 40.7314 0 -720.592 426.452 93.2352 -213.987 0.183729 -0.982977 1 0.5 0 1
220 1 40.5692 57.9159 0 40.5692 -21.3501 0 -127.903 219.91 -73.2656 -69.6343 -0.995454 0.0952451 1 0.5 0 1
221 1 40.6023 23.7009 0 40.6023 102.967 0 254.089 66.971 -62.8701 77.7647 -0.628701 0.777647 1 0.5 0 1
222 1 29.3793 46.4877 0 29.3793 -32.7783 0 96.7062 394.277 -23.3419 5.25493 0.909413 -0.415895 1 0.5 0 1
223 1 75.8136 34.6977 0 -3.45238 34.6977 0 -58.7408 191.902 -115.279 80.8241 -0.691513 0.722364 1 0.5 0 1
224 1 74.6808 59.6187 0 -4.58515 59.6187 0 169.529 680.289 -3.93377 101.267 0.976852 -0.213914 1 0.5 0 1
225 1 14.9057 59.5033 0 94.1717 -19.7627 0 -216.793 285.845 39.0653 -96.6458 0.940202 -0.340617 1 0.5 0 1
226 1 28.0928 63.3114 0 28.0928 -15.9546 0 -259.701 40.9522 -51.6111 -48.6331 -0.982751 -0.184931 1 0.5 0 1
227 1 4.37489 33.0495 0 83.6409 33.0495 0 97.904 49.4818 88.1417 290.491 -0.176624 0.984278 1 0.5 0 1
228 1 51.5917 62.2194 0 -27.6743 62.2194 0 -144.969 644.268 -39.4145 53.3976 -0.999269 -0.0382276 1 0.5 0 1
229 1 54.9865 36.7318 0 54.9865 36.7318 0 0.335267 -186.437 54.6165 105.696 0.749007 0.662562 1 0.5 0 1
230 1 55.5872 35.159 0 55.5872 114.425 0 634.484 -583.78 -39.7621 -147.908 -0.286749 0.958006 1 0.5 0 1
231 1 67.6728 11.3199 0 67.6728 90.5859 0 404.491 -1052.29 11.6458 245.315 -0.832273 0.554366 1 0.5 0 1
232 1 52.6935 31.852 0 52.6935 -47.414 0 163.051 269.08 -93.1386 -168.584 0.843112 -0.537739 1 0.5 0 1
233 1 9.53304 42.1948 0 9.53304 42.1948 0 300.193 -715.346 -106.091 65.5584 -0.298703 -0.954346 1 0.5 0 1
234 1 24.0523 57.4522 0 24.0523 -21.8138 0 -587.88 -400.061 125.073 185.257 -0.915364 0.402627 1 0.5 0 1
235 1 23.1708 63.925 0 23.1708 63.925 0 -34.0803 -859.57 117.343 -105.191 0.0497578 0.998761 1 0.5 0 1
236 1 21.3003 75.5016 0 100.566 75.5016 0 -608.771 -506.323 60.4197 136.572 0.996902 -0.0786483 1 0.5 0 1
237 1 57.1 24.1213 0 57.1 24.1213 0 -360.305 102.332 -11.6179 -90.7199 0.968278 -0.249874 1 0.5 0 1
238 1 62.7874 7.86071 0 62.7874 87.1267 0 -67.4985 -248.168 -10.7293 62.5622 0.413756 0.910388 1 0.5 0 1
239 1 6.68904 38.7205 0 85.955 38.7205 0 336.803 -220.269 176.836 -179.777 0.979024 -0.203747 1 0.5 0 1
240 1 47.9055 25.4417 0 47.9055 25.4417 0 469.584 -146.425 27.3453 -18.5154 0.867517 -0.497408 1 0.5 0 1
241 1 51.1181 35.1521 0 51.1181 35.1521 0 935.862 -646.095 -152.372 -18.5442 -0.642925 -0.765929 1 0.5 0 1
242 1 0.84815 61.517 0 80.1141 -17.749 0 181.223 734.417 -33.7721 -38.2855 0.211933 -0.977284 1 0.5 0 1
243 1 59.4137 13.3747 0 -19.8523 92.6407 0 102.726 19.7452 -103.54 79.0942 -0.686996 0.726661 1 0.5 0 1
244 1 41.6418 77.6568 0 41.6418 77.6568 0 -887.004 -786.759 -40.3829 40.2283 -0.458905 0.888485 1 0.5 0 1
245 1 57.931 46.594 0 57.931 46.594 0 343.126 -493.843 -103.343 65.5981 -0.0743981 -0.997229 1 0.5 0 1
246 1 52.5228 37.6428 0 52.5228 37.6428 0 -604.646 -430.052 -114.426 -119.817 0.376924 -0.926244 1 0.5 0 1
247 1 68.8543 50.8888 0 68.8543 -28.3772 0 -444.086 231.045 -52.8241 209.778 -0.83431 -0.551295 1 0.5 0 1
248 1 41.1285 38.2538 0 -38.1375 117.52 0 -793.891 24.3234 -36.368 90.392 -0.45048 0.892786 1 0.5 0 1
249 1 71.3233 19.7098 0 71.3233 19.7098 0 750.877 -103.608 38.7074 41.0634 0.979932 -0.19933 1 0.5 0 1
250 1 17.1927 71.268 0 96.4587 71.268 0 -21.8116 494.299 -77.6203 136.591 -0.0930696 0.99566 1 0.5 0 1
251 1 37.8961 69.2517 0 37.8961 148.518 0 74.9083 88.6947 -36.7121 93.0173 -0.367121 0.930173 1 0.5 0 1
252 1 26.2225 67.6701 0 26.2225 67.6701 0 -786.339 -161.323 33.4513 226.914 -0.240063 0.970757 1 0.5 0 1
253 1 18.6882 59.3855 0 18.6882 59.3855 0 -892.148 295.958 68.2533 124.745 0.972713 0.232013 1 0.5 0 1
254 1 47.1443 30.2488 0 47.1443 109.515 0 1172.19 48.0736 -30.2905 -2.97149 0.458892 0.888492 1 0.5 0 1
255 1 5.4821 30.7745 0 84.7481 110.04 0 36.8492 -624.126 -237.463 109.069 -0.999775 0.0211949 1 0.5 0 1
256 1 72.0749 39.4793 0 -7.19109 39.4793 0 -659.41 264.301 159.237 -133.53 0.797269 -0.603624 1 0.5 0 1
257 1 10.7727 35.1043 0 10.7727 114.37 0 -24.141 585.389 71.9689 -256.54 -0.950891 -0.309526 1 0.5 0 1
258 1 39.0297 43.8072 0 39.0297 -35.4588 0 -139.995 73.8621 36.1663 -89.6864 -0.375859 -0.926677 1 0.5 0 1
259 1 16.4845 51.8695 0 95.7505 51.8695 0 -566.427 -667.047 1.75014 54.8646 -0.232154 0.972679 1 0.5 0 1
260 1 35.4064 14.7354 0 114.672 14.7354 0 72.1801 -713.065 84.5319 -53.4263 0.845319 -0.534263 1 0.5 0 1
261 1 65.0501 6.27721 0 -14.2159 6.27721 0 155.939 -565.318 -94.0627 28.2586 -0.980105 0.198479 1 0.5 0 1
262 1 64.5902 63.1439 0 143.856 -16.1221 0 -210.812 -19.2829 40.1551 -19.223 -0.70505 -0.709157 1 0.5 0 1
263 1 33.705 70.8464 0 -45.561 -8.41957 0 480.549 -402.003 -59.722 -44.5752 -0.643834 -0.765165 1 0.5 0 1
264 1 47.5189 22.8147 0 126.785 22.8147 0 293.867 235.013 42.5125 -6.48922 0.959383 0.282105 1 0.5 0 1
265 1 42.0707 23.2578 0 42.0707 102.524 0 -612.876 -488.21 -4.50038 -50.8961 0.798224 0.60236 1 0.5 0 1
266 1 57.0035 48.1479 0 57.0035 48.1479 0 202.446 224.646 30.2094 9.37245 0.518775 -0.854911 1 0.5 0 1
267 1 75.2048 63.7762 0 -4.06122 -15.4898 0 -136.204 169.135 46.0353 48.1824 -0.773686 -0.633569 1 0.5 0 1
268 1 66.6248 57.5471 0 66.6248 57.5471 0 -536.651 527.56 142.131 15.4322 0.810731 -0.585419 1 0.5 0 1
269 1 45.0404 24.1279 0 124.306 24.1279 0 -52.7718 203.662 6.12398 -4.60299 -0.977419 0.211311 1 0.5 0 1
270 1 48.9094 54.1294 0 128.175 -25.1366 0 468.44 -78.4815 -25.7103 -59.9836 0.844517 -0.535528 1 0.5 0 1
271 1 56.2646 22.281 0 56.2646 22.281 0 625.861 217.416 27.9423 -145.768 0.7061 -0.708112 1 0.5 0 1
272 1 53.8586 35.3506 0 53.8586 35.3506 0 -78.7235 132.13 54.6952 -62.5148 0.394747 0.91879 1 0.5 0 1
273 1 61.5032 46.3534 0 61.5032 46.3534 0 488.064 845.76 -5.19017 -248.623 0.235768 -0.971809 1 0.5 0 1
274 1 12.3707 51.1767 0 12.3707 -28.0893 0 151.267 138.157 67.3416 16.9062 -0.988725 -0.149745 1 0.5 0 1
275 1 7.07825 63.0634 0 86.3443 -16.2026 0 -542.039 -242.491 13.6785 -32.3589 -0.0664845 -0.997787 1 0.5 0 1
276 1 61.1357 41.6812 0 61.1357 41.6812 0 719.76 200.43 -217.311 -188.156 0.920127 -0.39162 1 0.5 0 1
277 1 35.7658 20.3113 0 -43.5002 20.3113 0 385.845 489.913 4.74004 -31.9111 -0.899117 -0.437708 1 0.5 0 1
278 1 46.7179 5.81679 0 -32.5481 85.0828 0 696.269 -912.961 -84.8774 52.8756 -0.848774 0.528756 1 0.5 0 1
279 1 40.3491 25.3296 0 119.615 25.3296 0 291.201 -0.941813 96.3246 -26.862 0.963246 -0.26862 1 0.5 0 1
280 1 50.4948 46.2592 0 50.4948 -33.0068 0 449.437 146.35 10.4269 -61.9259 -0.234646 -0.972081 1 0.5 0 1
281 1 69.1401 53.85 0 69.1401 53.85 0 -478.657 180.274 -143.821 -211.526 0.90647 -0.422269 1 0.5 0 1
282 1 49.0414 43.4359 0 49.0414 -35.8301 0 147.023 187.822 37.4656 73.9625 0.846143 -0.532956 1 0.5 0 1
283 1 74.0286 28.5209 0 -5.23741 107.787 0 -435.15 -96.9921 -161.959 17.8926 0.804065 0.594541 1 0.5 0 1
284 1 71.869 18.2872 0 -7.397 97.5532 0 -684.545 744.206 335.924 -273.297 0.998951 0.0458028 1 0.5 0 1
285 1 69.9286 31.5272 0 69.9286 31.5272 0 586.589 645.461 65.2639 111.372 0.951736 0.306916 1 0.5 0 1