ITEM: TIMESTEP
350000
ITEM: NUMBER OF ATOMS
4000
ITEM: BOX BOUNDS pp pp pp
0.0000000000000000e+00 7.9266000000000005e+01
0.0000000000000000e+00 7.9266000000000005e+01
-5.0000000000000000e-01 5.0000000000000000e-01
ITEM: ATOMS id type x y z xu yu zu vx vy fx fy mux muy mu radius omegaz mass
1 1 1.70896 64.4027 0 80.975 64.4027 0 -782.588 -175.449 56.4522 -49.436 -0.999318 -0.0369364 1 0.5 0 1
2 1 60.3864 18.1351 0 60.3864 18.1351 0 -513.115 -23.3775 70.6144 -102.868 0.955842 0.293881 1 0.5 0 1
3 1 15.19 35.5609 0 15.19 -43.7051 0 691.554 -459.095 104.466 57.0245 0.781499 0.623907 1 0.5 0 1
4 1 13.4166 11.8565 0 13.4166 11.8565 0 -440.276 -83.3041 -97.5935 -21.8063 -0.975935 -0.218063 1 0.5 0 1
5 1 2.6823 31.7834 0 2.6823 31.7834 0 242.893 -684.482 -113.674 19.2304 0.0672883 0.997734 1 0.5 0 1
6 1 69.6308 29.7668 0 -9.63521 29.7668 0 568.46 -162.728 -18.9016 -31.464 -0.790542 0.612408 1 0.5 0 1
7 1 66.774 49.2633 0 66.774 49.2633 0 -311.061 -71.7811 457.419 -74.519 0.516323 0.856394 1 0.5 0 1
8 1 15.7828 38.5131 0 15.7828 -40.7529 0 364.632 -477.637 -87.4617 -29.334 -0.925154 -0.379592 1 0.5 0 1
9 1 68.1245 27.4768 0 68.1245 27.4768 0 838.62 14.2324 -98.5276 188.959 -0.403337 -0.915052 1 0.5 0 1
10 1 19.6053 55.1572 0 19.6053 55.1572 0 392.484 17.683 15.4612 78.8831 -0.822478 -0.568797 1 0.5 0 1
11 1 79.056 8.75515 0 -79.476 8.75515 0 -1.79502 -517.562 -68.3619 57.6613 -0.723941 0.689861 1 0.5 0 1
12 1 0.453524 22.9197 0 79.7195 102.186 0 -971.774 190.964 136.596 -21.8926 -0.99799 -0.0633791 1 0.5 0 1
13 1 75.8119 69.0329 0 75.8119 -10.2331 0 361.212 -363.432 -15.7492 -159.43 -0.977612 0.210415 1 0.5 0 1
14 1 19.6552 43.7153 0 -138.877 43.7153 0 -17.4539 -143.076 -67.3001 31.082 -0.982512 0.186197 1 0.5 0 1
15 1 10.3796 34.209 0 10.3796 34.209 0 -63.7461 -38.1445 -247.96 160.46 -0.986066 0.166352 1 0.5 0 1
16 1 15.0554 49.7369 0 -64.2106 -29.5291 0 -921.349 492.541 170.771 -26.6746 -0.952674 0.303995 1 0.5 0 1
17 1 40.8198 40.6932 0 120.086 119.959 0 348.027 244.645 -37.6025 -114.499 0.867752 0.496997 1 0.5 0 1
18 1 23.3758 25.8621 0 23.3758 25.8621 0 -1.63688 -512.476 -49.6727 -86.7907 -0.496727 -0.867907 1 0.5 0 1
19 1 3.97724 41.3054 0 3.97724 41.3054 0 -252.348 -567.057 -133.298 15.1409 0.373008 0.927828 1 0.5 0 1
20 1 14.4556 56.911 0 14.4556 56.911 0 -182.048 449.013 183.468 -145.494 0.979577 -0.201068 1 0.5 0 1
21 1 3.65974 28.466 0 3.65974 28.466 0 115.533 -15.7551 -73.7178 30.85 0.233062 0.972462 1 0.5 0 1
22 1 1.97705 21.6949 0 81.2431 21.6949 0 198.398 -94.5708 52.499 -67.9628 -0.825997 0.563674 1 0.5 0 1
23 1 38.0175 46.6085 0 117.284 46.6085 0 113.55 551.809 21.2546 -45.3376 0.969797 -0.243912 1 0.5 0 1
24 1 65.6524 57.1027 0 65.6524 -22.1633 0 264.728 -347.271 -199.271 20.7855 0.774322 -0.632791 1 0.5 0 1
25 1 46.9802 28.3524 0 -32.2858 -50.9136 0 -778.558 27.5255 -81.119 -14.973 0.912851 -0.408294 1 0.5 0 1
26 1 51.9993 57.2592 0 51.9993 -101.273 0 481.497 374.516 76.712 -152.84 0.807548 0.589802 1 0.5 0 1
27 1 74.2692 18.6003 0 -4.99682 97.8663 0 119.766 207.48 125.377 12.995 -0.979393 0.201962 1 0.5 0 1
28 1 59.0214 15.2801 0 59.0214 94.5461 0 -360.365 -783.74 -25.5628 -3.22469 0.192007 -0.981394 1 0.5 0 1
29 1 73.8951 38.1673 0 -5.37088 38.1673 0 72.3133 233.544 -40.1274 -149.284 -0.731285 0.682072 1 0.5 0 1
30 1 64.5342 15.2317 0 64.5342 94.4977 0 78.936 -222.361 75.6754 1.60193 -0.0139498 0.999903 1 0.5 0 1
31 1 74.4002 26.7262 0 -4.86577 26.7262 0 224.418 -429.358 66.2636 -279.41 -0.976675 0.214724 1 0.5 0 1
32 1 3.05779 15.6191 0 3.05779 15.6191 0 -883.429 503.387 61.7689 -27.4572 -0.421871 0.906656 1 0.5 0 1
33 1 64.1354 58.4528 0 64.1354 -20.8132 0 -507.141 -756.837 8.31475 55.8474 0.657314 -0.753617 1 0.5 0 1
34 1 5.565 44.6312 0 84.831 44.6312 0 261.057 38.8908 -7.12405 -180.556 0.208223 0.978081 1 0.5 0 1
35 1 41.6353 35.5979 0 -37.6307 35.5979 0 -0.810696 -122.412 49.7948 -37.0279 0.960518 -0.278217 1 0.5 0 1
36 1 59.4677 58.3089 0 59.4677 -20.9571 0 -433.736 -529.944 38.8633 109.749 0.245214 0.969469 1 0.5 0 1
37 1 69.5259 42.0999 0 69.5259 42.0999 0 413.321 -21.452 44.9343 -393.425 -0.991787 0.127899 1 0.5 0 1
38 1 71.0319 11.3387 0 150.298 90.6047 0 141.337 -361.612 -120.386 -57.091 0.999679 0.0253258 1 0.5 0 1
39 1 10.3183 22.2087 0 89.5843 -57.0573 0 -297.057 205.709 8.16279 -41.9588 -0.873825 0.48624 1 0.5 0 1
40 1 56.7489 17.6012 0 -22.5171 96.8672 0 -522.86 809.925 -66.8261 54.5782 0.188269 0.982117 1 0.5 0 1
41 1 68.3169 52.4646 0 68.3169 52.4646 0 1018.59 257.728 -4.15747 75.7737 0.439371 0.898306 1 0.5 0 1
42 1 74.1964 59.8308 0 -5.06963 59.8308 0 132.261 161.978 179.615 -128.892 0.136403 -0.990653 1 0.5 0 1
43 1 1.23781 15.6118 0 -78.0282 94.8778 0 415.629 500.037 -99.2267 -52.333 -0.658142 0.752894 1 0.5 0 1
44 1 64.9695 21.2518 0 64.9695 100.518 0 287.298 553.887 147.068 -95.9191 0.107729 0.99418 1 0.5 0 1
45 1 8.33245 70.7992 0 8.33245 -87.7328 0 -278.019 95.8544 12.5625 -99.2078 0.125625 -0.992078 1 0.5 0 1
46 1 6.54424 41.2709 0 6.54424 41.2709 0 -778.878 161.52 30.8538 192.47 -0.601855 0.798606 1 0.5 0 1
47 1 57.6639 61.4294 0 57.6639 -17.8366 0 -182.886 420.8 137.436 -138.25 -0.409182 -0.912453 1 0.5 0 1
48 1 11.1611 46.3192 0 11.1611 46.3192 0 10.425 -120.947 -285.735 -58.5716 -0.762577 -0.646898 1 0.5 0 1
49 1 25.4621 22.7761 0 25.4621 102.042 0 368.704 1026.47 -69.3629 -72.0332 -0.693629 -0.720332 1 0.5 0 1
50 1 1.1071 3.3979 0 1.1071 3.3979 0 288.183 -395.53 -90.4861 -16.5611 -0.999995 -0.0032564 1 0.5 0 1
51 1 2.72205 0.253988 0 -76.544 0.253988 0 -90.4106 -1139.43 -79.5733 -60.5647 -0.795733 -0.605647 1 0.5 0 1
52 1 3.84992 33.099 0 83.1159 33.099 0 -70.8495 -497.002 -46.4438 48.7683 -0.853135 0.52169 1 0.5 0 1
53 1 11.4463 54.799 0 11.4463 134.065 0 557.861 216.368 -160.851 -230.488 -0.984931 -0.172946 1 0.5 0 1
54 1 52.5215 29.4516 0 52.5215 29.4516 0 135.732 80.0108 39.4748 76.0175 -0.819273 0.573403 1 0.5 0 1
55 1 18.6655 43.2752 0 97.9315 122.541 0 556.747 1104.17 8.19341 13.9259 -0.835837 -0.548977 1 0.5 0 1
56 1 41.8092 38.0226 0 41.8092 38.0226 0 438.99 -357.506 -16.4377 57.0565 0.993504 0.113797 1 0.5 0 1
57 1 13.5034 25.8144 0 13.5034 105.08 0 -511.882 -182.683 -23.0467 -55.0039 -0.885402 0.464826 1 0.5 0 1
58 1 67.2771 28.074 0 -11.9889 28.074 0 435.26 1054.98 70.221 98.9813 -0.963976 -0.265989 1 0.5 0 1
59 1 51.6075 33.7353 0 51.6075 33.7353 0 103.574 81.3396 -193.902 -314.366 -0.301026 -0.953616 1 0.5 0 1
60 1 55.9528 40.4858 0 55.9528 40.4858 0 398.945 68.032 -93.3648 82.9118 0.958655 -0.284572 1 0.5 0 1
61 1 58.5576 43.9488 0 58.5576 43.9488 0 -309.305 -187.317 -7.8319 48.5593 0.64445 0.764646 1 0.5 0 1
62 1 57.0367 19.6881 0 136.303 19.6881 0 701.974 169.182 -166.629 -40.0878 0.870202 0.492695 1 0.5 0 1
63 1 12.2531 59.7795 0 -67.0129 -19.4865 0 -425.353 -246.913 59.1824 137.389 0.993625 -0.112735 1 0.5 0 1
64 1 45.4196 26.1314 0 124.686 105.397 0 19.5893 -336.778 41.3526 -37.1068 -0.921416 -0.388578 1 0.5 0 1
65 1 32.314 17.6384 0 190.846 96.9044 0 774.287 413.385 10.7457 87.5707 0.096302 0.995352 1 0.5 0 1
66 1 12.651 44.9343 0 91.917 124.2 0 84.1717 -477.925 -50.8321 33.3212 0.99997 0.00773877 1 0.5 0 1
67 1 53.7979 42.4877 0 53.7979 42.4877 0 -162.326 -525.138 -233.073 56.86 -0.990421 -0.138081 1 0.5 0 1
68 1 14.5452 40.9123 0 14.5452 40.9123 0 20.7419 5.05695 -141.012 -115.562 -0.523297 -0.85215 1 0.5 0 1
69 1 53.6384 20.4962 0 53.6384 20.4962 0 180.738 -280.961 25.9731 -0.697947 0.900124 0.435634 1 0.5 0 1
70 1 47.953 37.0124 0 47.953 116.278 0 -135.993 -583.639 -233.357 297.001 0.363642 0.931539 1 0.5 0 1
71 1 28.0247 1.8586 0 107.291 1.8586 0 -160.572 -49.4859 82.5411 -56.4532 0.825411 -0.564532 1 0.5 0 1
72 1 3.86555 56.7364 0 3.86555 56.7364 0 -471.483 506.459 166.425 -18.844 -0.579115 -0.815246 1 0.5 0 1
73 1 77.0689 11.0618 0 -2.19709 11.0618 0 273.776 336.708 -117.546 89.5783 -0.930424 0.366484 1 0.5 0 1
74 1 57.3982 21.7685 0 57.3982 101.034 0 -326.806 210.6 -143.743 43.05 0.120439 0.992721 1 0.5 0 1
75 1 75.5513 37.8235 0 -3.71467 37.8235 0 -141.945 113.707 37.4998 -103.546 0.617689 0.786422 1 0.5 0 1
76 1 47.8378 23.1286 0 -31.4282 23.1286 0 375.257 773.522 -50.7594 -20.7713 -0.712613 0.701557 1 0.5 0 1
77 1 78.1391 34.1523 0 -1.12691 34.1523 0 153.49 310.945 -50.4434 -60.9148 0.959836 -0.28056 1 0.5 0 1
78 1 59.3609 16.6881 0 59.3609 95.9541 0 811.767 463.491 1.85179 -150.917 0.941149 -0.337992 1 0.5 0 1
79 1 45.5845 57.9031 0 -33.6815 57.9031 0 320.778 111.663 17.9268 -7.03971 -0.148179 -0.988961 1 0.5 0 1
80 1 0.501235 26.4908 0 0.501235 -52.7752 0 -253.903 68.5462 162.245 -60.9426 0.791919 -0.610626 1 0.5 0 1
81 1 47.1094 33.9129 0 126.375 33.9129 0 22.6 -405.455 132.604 84.5335 0.11925 -0.992864 1 0.5 0 1
82 1 0.718109 38.3783 0 0.718109 38.3783 0 1029.66 -145.302 89.9854 249.041 0.291502 0.95657 1 0.5 0 1
83 1 41.8196 40.9451 0 121.086 120.211 0 -148.23 812.993 -22.0118 -114.655 0.788166 0.615463 1 0.5 0 1
84 1 76.0845 44.3841 0 -3.1815 44.3841 0 7.79491 155.411 97.1146 28.6983 -1 0.000498644 1 0.5 0 1
85 1 53.1054 17.2714 0 53.1054 17.2714 0 657.845 -283.441 -18.7042 -4.50836 -0.686476 0.727152 1 0.5 0 1
86 1 10.6381 39.7727 0 10.6381 39.7727 0 340.54 -283.317 153.047 -134.655 -0.873222 0.487322 1 0.5 0 1
87 1 11.0811 41.6969 0 11.0811 41.6969 0 -86.9018 341.611 -3.17039 -4.53975 -0.750612 -0.660743 1 0.5 0 1
88 1 14.857 63.4633 0 14.857 -15.8027 0 -416.158 303.242 52.1564 -11.3453 -0.999808 -0.0196117 1 0.5 0 1
89 1 30.9743 69.4082 0 30.9743 -9.85783 0 497.325 -45.9285 -72.5855 -68.7847 -0.725855 -0.687847 1 0.5 0 1
90 1 4.03081 37.69 0 4.03081 37.69 0 -429.368 221.348 467.556 -100.891 -0.588377 0.808587 1 0.5 0 1
91 1 15.541 58.2755 0 15.541 -20.9905 0 -146.761 522.263 83.8784 -46.1095 -0.720744 -0.693202 1 0.5 0 1
92 1 2.54588 54.4677 0 2.54588 54.4677 0 -435.908 -40.7783 121.122 -94.2175 0.993018 0.117961 1 0.5 0 1
93 1 1.30944 44.9815 0 1.30944 44.9815 0 761.757 137.647 25.6889 -10.1305 -0.676144 0.736769 1 0.5 0 1
94 1 69.8955 36.0073 0 69.8955 36.0073 0 89.4846 -383.394 150.833 208.764 0.993735 -0.111766 1 0.5 0 1
95 1 66.5903 48.272 0 66.5903 48.272 0 888.137 694.844 -275.84 -39.3015 -0.577034 -0.81672 1 0.5 0 1
96 1 53.5449 41.487 0 53.5449 41.487 0 -256.366 -137.864 197.979 51.1197 -0.801383 -0.598151 1 0.5 0 1
97 1 43.4713 23.4604 0 43.4713 -55.8056 0 411.426 371.401 65.4789 -78.2856 0.786039 -0.618177 1 0.5 0 1
98 1 19.4406 49.3451 0 19.4406 49.3451 0 189.679 272.088 -44.9692 -61.1189 -0.496366 -0.868113 1 0.5 0 1
99 1 44.9196 38.8235 0 44.9196 -40.4425 0 -592.69 41.9067 -44.9473 46.1011 0.966327 0.257316 1 0.5 0 1
100 1 72.3702 43.0701 0 72.3702 43.0701 0 187.542 653.687 4.5857 -278.121 0.0651908 -0.997873 1 0.5 0 1
101 1 49.4711 46.5003 0 49.4711 -32.7657 0 660.955 -448.327 -54.3626 65.3531 -0.479654 0.877458 1 0.5 0 1
102 1 78.2372 42.3665 0 -1.0288 42.3665 0 301.147 -195.808 128.385 -39.6282 -0.595735 -0.803181 1 0.5 0 1
103 1 70.915 76.0627 0 -87.617 155.329 0 -88.2167 214.043 -53.2131 -21.6254 -0.994958 -0.100288 1 0.5 0 1
104 1 53.0955 43.1481 0 53.0955 122.414 0 -102.161 46.8349 102.041 -80.7298 0.873582 0.486677 1 0.5 0 1
105 1 10.6691 20.2414 0 10.6691 20.2414 0 42.6497 -348.295 24.5684 22.498 0.32303 0.946389 1 0.5 0 1
106 1 34.3082 56.3083 0 34.3082 -22.9577 0 -165.328 -245.815 98.4136 -17.7418 0.984136 -0.177418 1 0.5 0 1
107 1 61.2126 36.7688 0 61.2126 36.7688 0 615.066 141.762 164.852 -38.8742 -0.0511195 -0.998693 1 0.5 0 1
108 1 78.5953 36.1109 0 -0.670658 115.377 0 -499.974 6.59938 162.491 -44.4967 0.983652 0.180078 1 0.5 0 1
109 1 10.8846 23.5016 0 -68.3814 102.768 0 115.751 -878.867 -48.9937 101.653 0.453375 0.89132 1 0.5 0 1
110 1 50.0915 30.4473 0 50.0915 30.4473 0 51.4238 -107.561 6.71436 -74.2881 -0.968177 -0.250266 1 0.5 0 1
111 1 73.4547 14.089 0 73.4547 93.355 0 -802.47 -7.86939 -31.1562 125.766 0.2568 0.966465 1 0.5 0 1
112 1 10.4593 48.9624 0 10.4593 48.9624 0 36.6546 -487.053 -14.8412 73.4209 0.711874 0.702307 1 0.5 0 1
113 1 13.3536 28.5852 0 -65.9124 107.851 0 -163.93 88.387 194.052 -124.235 -0.965369 0.260887 1 0.5 0 1
114 1 53.9283 54.1068 0 53.9283 54.1068 0 -513.512 -811.797 -98.5242 269.086 0.998365 0.05716 1 0.5 0 1
115 1 39.6785 46.4901 0 39.6785 -32.7759 0 129.611 279.591 -35.317 -11.2645 -0.29129 -0.956635 1 0.5 0 1
116 1 52.031 15.2203 0 52.031 -64.0457 0 -56.2733 -710.129 77.0831 -63.7039 0.770831 -0.637039 1 0.5 0 1
117 1 62.2871 67.9282 0 62.2871 -11.3378 0 77.6633 -79.058 -7.40776 -156.835 0.607466 -0.794346 1 0.5 0 1
118 1 54.2903 40.8594 0 54.2903 40.8594 0 743.68 -431.729 93.255 -161.352 0.96689 -0.255194 1 0.5 0 1
119 1 61.0074 12.1087 0 140.273 12.1087 0 -312.815 -693.232 24.2942 -81.7357 0.529982 -0.848009 1 0.5 0 1
120 1 45.7179 50.7581 0 124.984 -28.5079 0 -797.309 963.607 172.18 -129.807 -0.985727 -0.16835 1 0.5 0 1
121 1 30.3 18.767 0 -128.232 18.767 0 -7.77563 -210.673 111.711 24.1603 0.846501 0.532387 1 0.5 0 1
122 1 20.2049 25.5888 0 20.2049 104.855 0 -140.81 32.6694 41.5297 90.9686 0.415297 0.909686 1 0.5 0 1
123 1 74.7497 31.1926 0 -4.51629 31.1926 0 17.071 76.8003 4.18454 18.9882 -0.903187 0.429248 1 0.5 0 1
124 1 46.0918 69.8981 0 -33.1742 -9.36794 0 -150.539 217.66 -92.1163 -38.9177 -0.921163 -0.389177 1 0.5 0 1
125 1 65.5102 28.3146 0 65.5102 28.3146 0 -336.062 1051.74 17.1677 -118.098 -0.629029 -0.777382 1 0.5 0 1
126 1 8.71852 34.6025 0 87.9845 113.868 0 651.609 -190.925 -281.691 -90.3972 0.512485 -0.858696 1 0.5 0 1
127 1 56.9956 30.1125 0 56.9956 109.379 0 -832.374 25.7663 202.492 187.936 0.630154 0.77647 1 0.5 0 1
128 1 2.99275 25.5091 0 -76.2733 25.5091 0 342.698 404.549 -115.599 21.9848 -0.911585 0.411112 1 0.5 0 1
129 1 67.3059 56.6962 0 67.3059 -22.5698 0 -277.747 -215.803 145.783 35.4493 -0.999201 -0.0399692 1 0.5 0 1
130 1 73.373 56.0008 0 73.373 -23.2652 0 833.968 -186.351 37.7791 -112.373 -0.0238788 -0.999715 1 0.5 0 1
131 1 3.07779 71.8324 0 3.07779 71.8324 0 -301.93 1125.46 -0.0614036 -126.791 0.23621 -0.971702 1 0.5 0 1
132 1 59.0851 31.7185 0 -20.1809 110.985 0 832.717 -214.353 115.933 25.5465 0.955323 0.295565 1 0.5 0 1
133 1 17.5096 48.7628 0 17.5096 128.029 0 813.972 -275.065 -37.7889 18.4811 -0.993327 -0.115333 1 0.5 0 1
134 1 11.965 37.3895 0 11.965 37.3895 0 -562.459 -268.323 17.7416 -65.0418 -0.477915 -0.878406 1 0.5 0 1
135 1 14.8102 53.3737 0 14.8102 132.64 0 -704.924 -234.691 182.78 -0.0230609 0.194229 0.980956 1 0.5 0 1
136 1 25.6786 24.8123 0 104.945 104.078 0 626.609 -604.64 46.4458 88.5595 0.464458 0.885595 1 0.5 0 1
137 1 40.2461 53.2154 0 119.512 53.2154 0 302.618 -8.20252 -6.5319 -17.737 -0.0426677 -0.999089 1 0.5 0 1
138 1 47.8337 51.3455 0 -31.4323 -27.9205 0 366.401 169.694 125.954 15.7442 0.965353 -0.260947 1 0.5 0 1
139 1 44.0092 42.1571 0 44.0092 -37.1089 0 -1336.45 270.624 -113.763 13.8869 0.946357 -0.323124 1 0.5 0 1
140 1 76.1974 10.518 0 -3.06864 10.518 0 -196.673 530.332 -23.1684 46.0182 -0.73918 0.673508 1 0.5 0 1
141 1 9.12707 56.7328 0 9.12707 56.7328 0 90.6553 491.312 141.506 -36.6515 0.963549 -0.267532 1 0.5 0 1
142 1 26.5195 11.5014 0 -52.7465 90.7674 0 -205.525 325.437 193.32 12.0945 0.225021 0.974354 1 0.5 0 1
143 1 10.606 35.1731 0 10.606 114.439 0 126.94 -1166.22 28.5144 -118.366 0.985543 -0.169425 1 0.5 0 1
144 1 36.9877 21.411 0 36.9877 21.411 0 518.927 -78.5248 -89.2417 42.1586 -0.167911 0.985802 1 0.5 0 1
145 1 9.11096 66.2507 0 88.377 66.2507 0 86.9838 -258.304 53.3602 127.569 0.409045 -0.912514 1 0.5 0 1
146 1 59.9248 62.7898 0 59.9248 -16.4762 0 -230.462 -83.5865 120.391 17.6639 0.121892 -0.992543 1 0.5 0 1
147 1 78.3893 69.2132 0 78.3893 -10.0528 0 -128.31 332.073 -21.0047 -109.821 -0.939055 0.343767 1 0.5 0 1
148 1 51.2846 57.9782 0 130.551 57.9782 0 950.922 575.845 -59.4444 192.833 -0.434922 0.900468 1 0.5 0 1
149 1 71.2172 31.1406 0 71.2172 110.407 0 670.383 -275.32 -209.326 12.6613 -0.99799 0.063379 1 0.5 0 1
150 1 66.29 35.7797 0 -12.976 35.7797 0 -892.595 183.51 179.663 103.966 0.958467 0.285204 1 0.5 0 1
151 1 2.96669 56.3933 0 82.2327 -22.8727 0 116.961 329.401 -173.192 192.18 0.893608 -0.448848 1 0.5 0 1
152 1 62.424 65.2047 0 62.424 65.2047 0 -449.488 -147.419 -45.1991 89.6502 -0.49088 -0.871227 1 0.5 0 1
153 1 75.9102 59.5865 0 75.9102 59.5865 0 -275.339 54.074 -170.863 173.695 0.315607 -0.94889 1 0.5 0 1
154 1 2.24488 48.9412 0 2.24488 48.9412 0 -92.3791 -175.694 -212.499 -9.44407 0.127662 0.991818 1 0.5 0 1
155 1 68.8301 66.0847 0 -89.7019 -13.1813 0 -48.6053 442.43 253.037 42.7771 0.204285 -0.978912 1 0.5 0 1
156 1 73.4002 47.9021 0 73.4002 47.9021 0 711.536 -527.981 -61.0458 -35.2722 -0.47643 -0.879212 1 0.5 0 1
157 1 5.5803 29.088 0 5.5803 29.088 0 548.913 -270.455 68.0677 -4.5538 0.464637 -0.885501 1 0.5 0 1
158 1 67.0115 38.6141 0 -12.2545 38.6141 0 440.928 -256.199 57.976 -64.2321 -0.284711 -0.958613 1 0.5 0 1
159 1 78.6855 9.79584 0 -0.580492 89.0618 0 -554.928 -137.202 -5.59512 -19.7097 -0.845949 0.533264 1 0.5 0 1
160 1 23.2874 75.2648 0 23.2874 -4.00124 0 -17.7975 64.2001 80.1664 59.7775 0.801664 0.597775 1 0.5 0 1
161 1 44.4987 26.5951 0 44.4987 -52.6709 0 -106.368 -158.414 32.4145 -48.9866 0.196023 -0.980599 1 0.5 0 1
162 1 5.52439 51.8004 0 5.52439 51.8004 0 -330.413 56.3245 128.671 27.4841 -0.320351 -0.947299 1 0.5 0 1
163 1 63.3018 48.9829 0 63.3018 48.9829 0 151.165 -821.186 -132.054 165.611 0.769272 0.638921 1 0.5 0 1
164 1 56.6792 63.8782 0 56.6792 -15.3878 0 350.421 359.942 -164.847 22.7093 0.387475 -0.92188 1 0.5 0 1
165 1 32.7765 40.3225 0 32.7765 40.3225 0 374.628 22.9887 75.1226 66.0046 0.751226 0.660046 1 0.5 0 1
166 1 9.83708 44.0564 0 9.83708 44.0564 0 856.799 502.491 -42.218 184.157 0.315489 0.948929 1 0.5 0 1
167 1 64.7543 28.9443 0 64.7543 28.9443 0 592.296 48.8223 -149.517 -55.6828 0.0416541 -0.999132 1 0.5 0 1
168 1 12.5279 17.8843 0 -66.7381 97.1503 0 -54.1457 -527.331 -19.4264 -98.0949 -0.194264 -0.980949 1 0.5 0 1
169 1 19.5921 58.4201 0 -59.6739 137.686 0 -290.417 94.9532 38.0853 -90.4623 -0.917139 -0.398568 1 0.5 0 1
170 1 15.8041 53.7299 0 95.0701 132.996 0 -134.919 -456.725 -256.895 -10.7293 0.365923 -0.930645 1 0.5 0 1
171 1 60.5431 68.3552 0 139.809 -10.9108 0 818.933 -723.614 -15.7007 47.7565 0.502194 -0.864755 1 0.5 0 1
172 1 7.43255 57.0505 0 7.43255 -22.2155 0 799.096 -74.8789 117.149 235.54 0.974178 -0.225781 1 0.5 0 1
173 1 51.509 18.6879 0 51.509 -60.5781 0 89.5746 -4.9115 18.9985 -23.2818 0.980001 0.198992 1 0.5 0 1
174 1 9.0298 51.1419 0 9.0298 51.1419 0 -172.097 -511.242 -87.0408 136.01 -0.172204 0.985061 1 0.5 0 1
175 1 53.4379 62.3 0 -25.8281 -16.966 0 -331.963 541.663 -96.451 -75.9834 0.895409 -0.445244 1 0.5 0 1
176 1 10.6353 49.9154 0 10.6353 49.9154 0 163.553 -235.633 46.1562 84.1188 0.63289 0.774242 1 0.5 0 1
177 1 2.59241 68.7591 0 2.59241 68.7591 0 286.294 837.516 -187.428 -11.4475 -0.913706 0.406376 1 0.5 0 1
178 1 56.667 28.1759 0 -22.599 107.442 0 -406.394 -164.515 197.249 74.3621 -0.967202 0.25401 1 0.5 0 1
179 1 3.52071 54.7355 0 3.52071 -24.5305 0 129.623 -532.409 -183.825 181.535 0.960934 -0.276779 1 0.5 0 1
180 1 73.5997 40.7863 0 73.5997 40.7863 0 -1029.99 -568.732 144.797 -8.16984 -0.977827 0.209416 1 0.5 0 1
181 1 63.6482 15.7644 0 63.6482 15.7644 0 -720.491 415.784 44.7836 -61.2429 0.278 0.960581 1 0.5 0 1
182 1 12.2155 66.1352 0 -67.0505 66.1352 0 -449.674 -17.5557 17.8883 -26.4175 -0.841115 -0.540857 1 0.5 0 1
183 1 58.8312 56.4779 0 58.8312 -22.7881 0 562.518 -1129.77 95.2318 -65.2232 -0.981662 0.190629 1 0.5 0 1
184 1 63.3442 41.8427 0 63.3442 41.8427 0 788.43 602.899 139.187 243.332 0.179131 -0.983825 1 0.5 0 1
185 1 61.0664 10.8931 0 -18.1996 10.8931 0 101.254 -302.405 -16.7512 35.2309 -0.706875 0.707338 1 0.5 0 1
186 1 42.6797 13.3995 0 -36.5863 92.6655 0 251.33 -483.511 -96.5269 -26.1258 -0.965269 -0.261258 1 0.5 0 1
187 1 55.1628 34.0335 0 -24.1032 113.3 0 292.555 -236.998 60.4558 70.8655 -0.623942 0.781471 1 0.5 0 1
188 1 63.6767 14.7287 0 142.943 93.9947 0 -421.423 -296.231 -4.66651 52.8727 0.627873 0.778316 1 0.5 0 1
189 1 76.5914 76.1316 0 -2.67462 76.1316 0 -236.69 -197.107 -105.683 75.2956 -0.946233 -0.323485 1 0.5 0 1
190 1 20.1398 53.4584 0 -59.1262 53.4584 0 -80.1775 165.808 -22.9773 16.5484 -0.301339 0.953517 1 0.5 0 1
191 1 65.5092 16.3566 0 144.775 16.3566 0 -188.577 340.775 -176.147 -68.0489 -0.444106 -0.895974 1 0.5 0 1
192 1 58.5827 36.8566 0 58.5827 36.8566 0 -126.515 121.756 -134.868 211.571 0.383643 0.923481 1 0.5 0 1
193 1 75.2361 13.1441 0 -4.02986 92.4101 0 -292.436 -645.347 59.1538 11.6137 -0.808355 0.588696 1 0.5 0 1
194 1 27.4042 39.3443 0 27.4042 -39.9217 0 261.808 -90.9781 -46.2428 -88.6657 -0.462428 -0.886657 1 0.5 0 1
195 1 53.4453 29.789 0 53.4453 29.789 0 -188.389 255.422 -86.8389 -8.54736 -0.856032 0.516923 1 0.5 0 1
196 1 58.569 40.3718 0 58.569 40.3718 0 -84.8379 -650.129 -142.999 243.681 -0.818507 -0.574496 1 0.5 0 1
197 1 70.8567 60.4401 0 -8.40929 60.4401 0 135.635 -175.944 -100.765 -56.7504 0.986319 -0.164847 1 0.5 0 1
198 1 73.4879 44.3724 0 73.4879 44.3724 0 -152.531 172.445 272.819 118.866 -0.331079 0.943603 1 0.5 0 1
199 1 65.8534 67.9299 0 -13.4126 -11.3361 0 -206.454 -464.128 10.3462 -75.2579 0.327302 -0.94492 1 0.5 0 1
200 1 3.01146 16.5989 0 82.2775 95.8649 0 -343.01 660.446 1.25736 -29.3903 0.292456 0.956279 1 0.5 0 1
201 1 8.28862 72.4432 0 8.28862 72.4432 0 -581.781 -789.541 -94.0045 34.1051 -0.940045 0.341051 1 0.5 0 1
202 1 56.7887 58.5537 0 -22.4773 -20.7123 0 -361.338 -631.347 17.8623 -11.4179 0.336454 -0.9417 1 0.5 0 1
203 1 20.9017 36.1807 0 -58.3643 115.447 0 -191.464 641.622 50.6056 -15.5477 -0.961889 0.27344 1 0.5 0 1
204 1 64.4585 63.0476 0 64.4585 -16.2184 0 1056.1 243.068 -263.862 -71.6884 -0.644059 -0.764975 1 0.5 0 1
205 1 39.06 24.0611 0 39.06 103.327 0 366.772 302.798 93.4807 -35.5156 0.934807 -0.355156 1 0.5 0 1
206 1 2.32673 58.1291 0 2.32673 -21.1369 0 -309.342 195.351 59.2106 -118.189 -0.882081 0.471098 1 0.5 0 1
207 1 58.3143 63.3555 0 58.3143 63.3555 0 203.318 856.658 -49.2252 -141.213 0.881657 -0.47189 1 0.5 0 1
208 1 8.94758 31.9968 0 8.94758 31.9968 0 255.919 518.47 -196.665 -50.4397 -0.413761 0.910386 1 0.5 0 1
209 1 52.9914 26.8235 0 52.9914 106.09 0 -96.141 -158.117 -78.4463 -35.353 0.999481 0.0322026 1 0.5 0 1
210 1 65.8412 61.6598 0 -13.4248 61.6598 0 115.144 -178.578 -130.014 222.422 -0.477292 0.878745 1 0.5 0 1
211 1 60.7454 41.9054 0 60.7454 41.9054 0 -582.452 -288.444 -222.308 34.2836 0.283955 -0.958838 1 0.5 0 1
212 1 30.4251 33.3825 0 188.957 33.3825 0 -507.417 403.933 -91.6666 7.20778 -0.972557 0.232666 1 0.5 0 1
213 1 69.2675 64.4257 0 69.2675 64.4257 0 -232.639 -318.242 -147.83 241.578 0.553081 0.833128 1 0.5 0 1
214 1 16.0981 63.7482 0 16.0981 63.7482 0 228.307 199.81 26.0793 -91.0511 0.0850182 -0.996379 1 0.5 0 1
215 1 55.4226 59.9561 0 55.4226 -19.3099 0 117.496 -136.706 -86.9047 6.07144 0.144304 -0.989533 1 0.5 0 1
216 1 14.6181 46.6465 0 14.6181 125.912 0 -440.051 -808.647 -21.1634 47.9879 -0.724478 0.689298 1 0.5 0 1
217 1 66.9164 1.89991 0 146.182 81.1659 0 368.177 -456.866 26.7441 97.2748 0.724234 0.689555 1 0.5 0 1
218 1 46.1687 48.1231 0 46.1687 48.1231 0 -871.235 138.851 9.18605 60.4665 -0.982532 -0.186095 1 0.5 0 1
219 1 53.3211 44.118 0 53.3211 44.118 0 -437.845 112.418 -28.569 -104.09 -0.713805 -0.700345 1 0.5 0 1
220 1 61.3159 67.6548 0 61.3159 -90.8772 0 -605.272 -174.931 -228.682 4.96169 0.95467 0.297667 1 0.5 0 1
221 1 49.3351 21.7642 0 -29.9309 180.296 0 -15.009 144.769 69.218 17.6215 0.0977822 0.995208 1 0.5 0 1
222 1 42.1631 33.748 0 42.1631 33.748 0 -89.7634 -14.6401 25.6005 89.4236 0.978013 -0.208545 1 0.5 0 1
223 1 71.8255 36.5904 0 -7.44052 36.5904 0 -191.053 104.539 -241.858 -314.738 -0.418634 -0.908155 1 0.5 0 1
224 1 75.3365 61.1571 0 -3.92948 61.1571 0 1193.22 -141.235 -171.026 215.339 -0.833093 -0.553133 1 0.5 0 1
225 1 14.1086 27.8105 0 93.3746 -51.4555 0 1045.85 -383.412 -151.011 -10.6757 -0.93281 0.360368 1 0.5 0 1
226 1 67.282 7.46569 0 -11.984 7.46569 0 250.66 -444.381 -88.6593 46.2549 -0.886593 0.462549 1 0.5 0 1
227 1 1.20896 36.7369 0 80.475 36.7369 0 -195.629 -329.283 71.0701 105.73 -0.684158 -0.729333 1 0.5 0 1
228 1 13.0661 63.8345 0 -66.1999 -15.4315 0 228.345 580.665 33.8874 -127.702 -0.576524 -0.81708 1 0.5 0 1
229 1 51.3646 39.8852 0 51.3646 39.8852 0 480.672 448.433 -66.0715 124.443 -0.999833 -0.0182674 1 0.5 0 1
230 1 51.8087 38.2746 0 51.8087 117.541 0 450.738 -843.067 83.9776 94.931 -0.29134 0.95662 1 0.5 0 1
231 1 5.00198 22.4639 0 5.00198 101.73 0 -663.407 205.63 -112.378 34.1157 -0.707337 0.706876 1 0.5 0 1
232 1 48.0243 24.1296 0 48.0243 -55.1364 0 359.22 -343.736 42.6935 91.5008 0.536473 0.843918 1 0.5 0 1
233 1 6.49511 44.9025 0 6.49511 44.9025 0 -54.3985 -473.196 90.153 42.1911 -0.985928 0.167169 1 0.5 0 1
234 1 56.7389 68.9386 0 56.7389 -10.3274 0 -171.489 51.6635 12.5663 -45.0801 0.901665 -0.432436 1 0.5 0 1
235 1 37.3661 42.3187 0 37.3661 121.585 0 -120.368 447.499 -65.7127 54.9181 -0.594251 0.80428 1 0.5 0 1
236 1 52.4284 69.6876 0 131.694 -9.57845 0 1056.91 429.437 -18.039 -98.3595 -0.18039 -0.983595 1 0.5 0 1
237 1 68.7685 69.7676 0 68.7685 -9.49845 0 590.509 -183.311 -28.8519 28.6093 0.404319 -0.914618 1 0.5 0 1
238 1 69.942 21.8396 0 69.942 101.106 0 585.722 -437.025 275.738 40.0966 -0.851169 0.524892 1 0.5 0 1
239 1 3.2499 41.9802 0 82.5159 41.9802 0 277.391 76.5217 -40.3756 -61.1965 0.997655 -0.0684468 1 0.5 0 1
240 1 72.5438 17.5289 0 72.5438 17.5289 0 -346.697 -10.926 -97.3021 -75.1821 0.850561 -0.525876 1 0.5 0 1
241 1 47.6529 35.9333 0 47.6529 35.9333 0 1091.32 -671.133 -69.5842 86.1119 -0.71237 -0.701804 1 0.5 0 1
242 1 2.34311 62.7851 0 81.6091 -16.4809 0 261.028 -205.153 -123.262 120.885 0.874764 0.48455 1 0.5 0 1
243 1 74.4774 74.2601 0 -84.0546 74.2601 0 -33.1815 110.454 -85.3145 -96.2765 -0.821696 -0.569926 1 0.5 0 1
244 1 60.8357 24.9921 0 60.8357 104.258 0 -255.45 -457.418 82.6685 191.563 0.851715 0.524005 1 0.5 0 1
245 1 56.5586 50.4539 0 56.5586 50.4539 0 81.0501 340.53 -56.2496 -146.342 -0.791105 -0.61168 1 0.5 0 1
246 1 49.023 40.9503 0 49.023 40.9503 0 577.041 -671.196 201.782 -108.444 -0.268534 -0.96327 1 0.5 0 1
247 1 66.8305 53.8018 0 66.8305 -25.4642 0 639.528 385.802 -223.928 -22.6583 0.00466694 -0.999989 1 0.5 0 1
248 1 23.8107 46.6213 0 -55.4553 46.6213 0 524.704 68.2334 25.8233 -96.6083 0.258233 -0.966083 1 0.5 0 1
249 1 39.3622 52.6167 0 118.628 -26.6493 0 -352.424 117.248 60.7243 -20.6675 0.697434 -0.716649 1 0.5 0 1
250 1 42.6261 73.8337 0 201.158 73.8337 0 313.749 41.665 76.6647 -49.4842 0.909003 -0.416789 1 0.5 0 1
251 1 61.8512 12.7089 0 61.8512 171.241 0 373.943 617.098 87.7495 8.01897 0.508139 0.861275 1 0.5 0 1
252 1 60.715 21.2171 0 60.715 100.483 0 230.645 -186.466 -63.7258 -74.3891 -0.915994 0.401191 1 0.5 0 1
253 1 16.5916 48.4184 0 16.5916 48.4184 0 77.3246 -323.47 -82.3598 75.7666 -0.938693 0.344754 1 0.5 0 1
254 1 46.9728 32.9491 0 46.9728 112.215 0 415.897 -157.398 -64.4107 12.2082 0.812331 -0.583196 1 0.5 0 1
255 1 1.48412 34.1158 0 80.7501 113.382 0 540.6 -116.61 -162.322 69.5348 0.296648 0.954987 1 0.5 0 1
256 1 68.5953 41.7832 0 -10.6707 41.7832 0 700.185 269.473 -76.0086 -155.637 -0.573014 -0.819546 1 0.5 0 1
257 1 7.59655 37.9287 0 7.59655 117.195 0 -247.906 188.687 47.4959 -151.44 -0.915755 -0.401736 1 0.5 0 1
258 1 7.70983 26.0337 0 7.70983 -53.2323 0 702.739 627.156 -108.665 -136.45 0.891867 0.452297 1 0.5 0 1
259 1 42.5956 56.3215 0 42.5956 56.3215 0 907.336 216.736 -12.5665 -81.4086 0.129513 -0.991578 1 0.5 0 1
260 1 69.3649 68.0486 0 148.631 -11.2174 0 -677.653 -446.293 198.194 131.97 0.999088 -0.0426972 1 0.5 0 1
261 1 3.55563 77.4963 0 3.55563 -1.76969 0 222.859 550.3 111.643 -8.10747 0.866414 0.499326 1 0.5 0 1
262 1 57.0602 59.5096 0 136.326 -19.7564 0 21.009 6.93444 -70.9103 -14.7157 0.0168407 -0.999858 1 0.5 0 1
263 1 1.62878 4.49014 0 -77.6372 -74.7759 0 645.031 -237.214 -41.8971 -16.4363 -0.0114394 -0.999935 1 0.5 0 1
264 1 19.418 42.5261 0 177.95 -36.7399 0 -81.9526 12.6551 -8.14643 82.1051 -0.999898 0.0142801 1 0.5 0 1
265 1 52.4 28.4747 0 52.4 107.741 0 -737.639 227.058 -93.7984 -27.2262 0.987141 -0.15985 1 0.5 0 1
266 1 56.0557 52.0754 0 56.0557 52.0754 0 -332.756 220.4 358.14 281.845 0.521696 0.853131 1 0.5 0 1
267 1 72.2346 62.6765 0 -7.03137 -16.5895 0 521.093 584.472 10.1455 -107.822 -0.999636 -0.026972 1 0.5 0 1
268 1 66.2951 60.0193 0 66.2951 60.0193 0 -206.217 231.984 115.643 -205.273 0.801507 -0.597986 1 0.5 0 1
269 1 15.8946 54.7591 0 95.1606 54.7591 0 152.625 -151.311 76.9566 -167.772 -0.954448 0.298376 1 0.5 0 1
270 1 71.3859 1.62376 0 71.3859 1.62376 0 -558.258 -178.535 -135.082 -17.0246 -0.953192 -0.302366 1 0.5 0 1
271 1 67.4546 13.1036 0 67.4546 13.1036 0 -633.24 -3.89129 62.8357 80.6703 0.99417 -0.107828 1 0.5 0 1
272 1 50.8242 37.9205 0 50.8242 37.9205 0 -660.514 -471.006 37.4706 119.65 0.643317 -0.7656 1 0.5 0 1
273 1 59.9801 49.6824 0 59.9801 49.6824 0 -531.541 194.502 -81.0887 -184.166 0.822996 0.568047 1 0.5 0 1
274 1 63.0683 10.8386 0 63.0683 10.8386 0 -623.224 149.828 49.8191 27.432 0.991482 0.130245 1 0.5 0 1
275 1 7.20358 60.799 0 86.4696 -18.467 0 -753.463 -6.16896 -86.3841 70.083 -0.243781 0.96983 1 0.5 0 1
276 1 57.8453 44.6421 0 57.8453 44.6421 0 172.969 127.757 -13.6683 -132.731 -0.105008 0.994471 1 0.5 0 1
277 1 60.047 12.7622 0 -19.219 12.7622 0 564.437 -86.4418 51.5278 -49.3537 0.997548 0.0699904 1 0.5 0 1
278 1 9.90248 32.2585 0 -69.3635 111.524 0 -18.3269 -106.392 111.636 -6.09305 0.704881 -0.709325 1 0.5 0 1
279 1 26.2091 61.445 0 105.475 -97.087 0 -83.1347 95.5706 -36.8802 -92.9508 -0.368802 -0.929508 1 0.5 0 1
280 1 10.1165 6.11828 0 -69.1495 -73.1477 0 252.085 -727.469 -30.4373 -95.2553 -0.304373 -0.952553 1 0.5 0 1
281 1 68.0877 56.0323 0 68.0877 56.0323 0 31.5465 -487.37 94.6314 -181.362 -0.708918 0.705291 1 0.5 0 1
282 1 47.7569 46.8494 0 47.7569 -32.4166 0 -430.192 235.209 189.767 123.842 0.794843 -0.606815 1 0.5 0 1
283 1 68.6439 31.2974 0 -10.6221 110.563 0 416.482 -263.802 37.4989 38.768 -0.988762 -0.149498 1 0.5 0 1
284 1 6.31254 28.4087 0 6.31254 107.675 0 -86.0601 558.542 -134.317 147.374 0.196212 0.980562 1 0.5 0 1
285 1 65.1009 34.5452 0 65.1009 34.5452 0 267.015 -93.034 -4.71602 -140.025 0.999895 0.0144976 1 0.5 0 1