ITEM: TIMESTEP
410000
ITEM: NUMBER OF ATOMS
4000
ITEM: BOX BOUNDS pp pp pp
0.0000000000000000e+00 7.9266000000000005e+01
0.0000000000000000e+00 7.9266000000000005e+01
-5.0000000000000000e-01 5.0000000000000000e-01
ITEM: ATOMS id type x y z xu yu zu vx vy fx fy mux muy mu radius omegaz mass
1 1 5.38956 64.8971 0 84.6556 64.8971 0 418.332 -314.698 25.3136 -73.4292 -0.674535 -0.738243 1 0.5 0 1
2 1 61.503 19.5725 0 61.503 19.5725 0 -106.083 186.461 -28.7131 55.3546 0.836637 -0.547758 1 0.5 0 1
3 1 15.5926 33.864 0 15.5926 -45.402 0 108.293 386.355 -41.0712 -70.6722 0.784212 -0.620493 1 0.5 0 1
4 1 2.84679 15.9077 0 2.84679 15.9077 0 -279.359 506.197 -11.8347 -33.0232 -0.999604 0.0281561 1 0.5 0 1
5 1 1.61875 32.4621 0 1.61875 32.4621 0 568.192 -319.04 309.141 -22.2881 -0.755458 0.655197 1 0.5 0 1
6 1 69.256 30.3639 0 -10.01 30.3639 0 528.681 -898.194 109.878 166.389 0.825435 0.564498 1 0.5 0 1
7 1 66.8446 50.4269 0 66.8446 50.4269 0 223.244 267.831 55.943 -116.297 0.138402 0.990376 1 0.5 0 1
8 1 16.8689 35.0246 0 16.8689 -44.2414 0 -11.1047 -343.169 80.7517 -105.868 -0.838832 -0.54439 1 0.5 0 1
9 1 67.7247 28.0798 0 67.7247 28.0798 0 -586.803 -117.472 -6.21041 130.243 -0.966261 -0.257564 1 0.5 0 1
10 1 22.0259 54.9612 0 22.0259 54.9612 0 161.763 32.0886 76.3466 80.485 -0.952168 -0.305575 1 0.5 0 1
11 1 66.8606 12.5799 0 -91.6714 12.5799 0 56.2397 -175.69 -50.4297 86.3531 -0.504297 0.863531 1 0.5 0 1
12 1 79.0479 23.348 0 79.0479 102.614 0 -302.612 -19.3202 -1.76586 -25.0919 -0.566996 -0.823721 1 0.5 0 1
13 1 77.7219 67.6557 0 77.7219 -11.6103 0 -36.2498 -1012.52 126.167 114.882 -0.897032 0.441965 1 0.5 0 1
14 1 16.2458 42.0912 0 -142.286 42.0912 0 -460.886 532.996 67.2692 20.1092 -0.789727 -0.613458 1 0.5 0 1
15 1 10.4911 35.4538 0 10.4911 35.4538 0 450.571 -115.624 -83.8147 -45.8079 -0.499831 0.866123 1 0.5 0 1
16 1 15.4863 51.3705 0 -63.7797 -27.8955 0 -176.071 588.851 -8.80575 5.13675 -0.998006 0.063122 1 0.5 0 1
17 1 40.5528 40.4231 0 119.819 119.689 0 -996.777 -1006.62 -8.48711 -112.378 0.967659 -0.252261 1 0.5 0 1
18 1 71.7861 74.1305 0 -7.47993 -5.13549 0 -641.327 376.797 69.9489 0.949257 -0.285028 -0.958519 1 0.5 0 1
19 1 4.17162 42.4727 0 4.17162 42.4727 0 377.34 -274.188 -233.105 -61.6876 -0.0988517 0.995102 1 0.5 0 1
20 1 15.8833 58.7769 0 15.8833 58.7769 0 -544.13 -494.539 51.7169 -156.943 0.87822 -0.478257 1 0.5 0 1
21 1 2.64508 29.157 0 2.64508 29.157 0 -112.668 -501.406 64.4656 24.7723 0.903995 0.427544 1 0.5 0 1
22 1 1.30281 22.1065 0 80.5688 22.1065 0 1048.51 -39.1845 -126.542 -128.378 -0.851636 0.524134 1 0.5 0 1
23 1 38.7473 45.5379 0 118.013 45.5379 0 -311.261 888.753 34.2692 2.74211 0.209359 -0.977839 1 0.5 0 1
24 1 66.7177 57.4916 0 66.7177 -21.7744 0 542.666 -1080.26 -22.7685 -20.8873 -0.0534416 -0.998571 1 0.5 0 1
25 1 47.2333 29.3502 0 -32.0327 -49.9158 0 -547.092 496.046 -114.939 49.75 0.965982 -0.25861 1 0.5 0 1
26 1 51.5038 58.4545 0 51.5038 -100.077 0 -367.912 -414.868 120.422 100.583 0.998061 -0.0622479 1 0.5 0 1
27 1 73.9765 19.6792 0 -5.28946 98.9452 0 485.988 286.509 109.567 -63.437 -0.549619 -0.835415 1 0.5 0 1
28 1 18.9476 70.7964 0 18.9476 70.7964 0 -13.1306 126.117 -80.9642 -58.6924 -0.809642 -0.586924 1 0.5 0 1
29 1 74.0113 39.3124 0 -5.25474 39.3124 0 84.2265 285.106 25.7554 -136.119 -0.898228 -0.43953 1 0.5 0 1
30 1 76.6801 11.1896 0 76.6801 90.4556 0 -374.872 92.3809 199.583 37.9906 0.905044 0.425318 1 0.5 0 1
31 1 73.6333 27.0495 0 -5.63273 27.0495 0 -74.0378 -599.06 74.4577 82.9439 -0.987654 -0.156648 1 0.5 0 1
32 1 2.98156 16.9861 0 2.98156 16.9861 0 161.076 -32.3841 91.0082 32.8699 0.388656 0.921383 1 0.5 0 1
33 1 65.1886 58.7602 0 65.1886 -20.5058 0 25.62 -200.054 143.799 -22.5553 -0.225571 -0.974227 1 0.5 0 1
34 1 6.16433 46.9092 0 85.4303 46.9092 0 -939.637 311.85 36.9421 14.5672 -0.0440126 0.999031 1 0.5 0 1
35 1 43.4496 36.7384 0 -35.8164 36.7384 0 214.8 440.12 -28.9005 13.0199 0.888741 0.45841 1 0.5 0 1
36 1 59.8365 58.923 0 59.8365 -20.343 0 -185.521 -64.3479 -144.54 -155.333 -0.0216015 0.999767 1 0.5 0 1
37 1 69.6116 43.3627 0 69.6116 43.3627 0 921.993 94.9033 -102.603 67.6217 -0.957672 0.287861 1 0.5 0 1
38 1 0.012371 12.7083 0 158.544 91.9743 0 1003.71 -342.346 134.399 156.172 0.811493 -0.584362 1 0.5 0 1
39 1 7.90809 24.4672 0 87.1741 -54.7988 0 150.455 243.649 18.0216 -69.6343 0.125034 -0.992152 1 0.5 0 1
40 1 55.1893 19.2262 0 -24.0767 98.4922 0 -111.122 -1028.85 -35.1987 -74.3041 0.862482 0.506087 1 0.5 0 1
41 1 69.2585 52.9238 0 69.2585 52.9238 0 -134.432 438.374 -37.612 -164.051 0.986258 -0.165214 1 0.5 0 1
42 1 75.2901 60.4403 0 -3.9759 60.4403 0 -214.545 -306.807 -184.103 256.508 -0.217626 -0.976032 1 0.5 0 1
43 1 0.144603 15.8147 0 -79.1214 95.0807 0 -250.216 -364.376 -36.5625 32.4283 -0.298049 -0.954551 1 0.5 0 1
44 1 64.6 21.3645 0 64.6 100.63 0 -264.16 657.739 -205.864 -89.4499 0.0678349 0.997697 1 0.5 0 1
45 1 12.8126 69.5089 0 12.8126 -89.0231 0 261.188 -773.369 -66.13 2.9591 0.0935542 -0.995614 1 0.5 0 1
46 1 5.98438 43.1599 0 5.98438 43.1599 0 261.862 -92.8422 -46.5221 32.2329 -0.961609 -0.274424 1 0.5 0 1
47 1 58.5942 61.2172 0 58.5942 -18.0488 0 161.677 153.867 -175.636 -123.605 -0.705404 -0.708806 1 0.5 0 1
48 1 12.4259 46.8181 0 12.4259 46.8181 0 -135.669 260.258 -29.6327 91.8799 0.824781 -0.565452 1 0.5 0 1
49 1 31.436 62.2751 0 31.436 62.2751 0 -94.5064 85.6281 88.5028 -46.5537 0.885028 -0.465537 1 0.5 0 1
50 1 59.4738 14.9938 0 -19.7922 14.9938 0 16.3075 -136.588 -79.807 -49.781 -0.535447 0.844569 1 0.5 0 1
51 1 63.0846 71.5309 0 -95.4474 -7.73507 0 237.691 403.71 136.086 28.9965 -0.20127 -0.979536 1 0.5 0 1
52 1 2.8802 33.804 0 82.1462 33.804 0 73.4868 645.999 15.692 -48.2572 -0.111995 0.993709 1 0.5 0 1
53 1 13.4107 56.1899 0 13.4107 135.456 0 620.182 381.298 -184.651 -9.72984 -0.99597 -0.0896924 1 0.5 0 1
54 1 52.6913 30.3772 0 52.6913 30.3772 0 -661.729 13.7038 -9.62888 66.9732 -0.824358 0.566068 1 0.5 0 1
55 1 15.5641 42.8389 0 94.8301 122.105 0 550.806 243.044 78.2239 11.8339 -0.712002 -0.702177 1 0.5 0 1
56 1 42.117 39.1032 0 42.117 39.1032 0 -517.445 -144.107 78.4059 66.3864 0.705536 0.708674 1 0.5 0 1
57 1 12.4627 21.7663 0 12.4627 101.032 0 -40.7862 -61.3272 -99.4376 -10.5907 -0.994376 -0.105907 1 0.5 0 1
58 1 67.0865 28.8538 0 -12.1795 28.8538 0 252.302 114.582 -32.5324 64.8097 -0.930548 0.36617 1 0.5 0 1
59 1 51.8392 34.7623 0 51.8392 34.7623 0 -596.105 171.035 -139.141 -66.5283 0.486113 -0.873896 1 0.5 0 1
60 1 55.9384 41.5979 0 55.9384 41.5979 0 419.158 -693.307 119.696 340.001 0.895083 -0.4459 1 0.5 0 1
61 1 58.4474 45.1148 0 58.4474 45.1148 0 -331.317 224.752 49.8565 -120.517 0.697873 -0.716221 1 0.5 0 1
62 1 57.0991 19.8892 0 136.365 19.8892 0 281.733 419.203 -27.545 141.589 0.74269 0.669636 1 0.5 0 1
63 1 13.5828 62.4427 0 -65.6832 -16.8233 0 662.172 -426.544 -10.7539 68.3969 0.0329937 0.999456 1 0.5 0 1
64 1 41.0778 30.9882 0 120.344 110.254 0 76.5797 33.8298 -0.705676 -3.02106 -0.372409 0.928069 1 0.5 0 1
65 1 43.2547 31.7739 0 201.787 111.04 0 153.372 -273.238 129.774 -11.4752 0.961105 0.276183 1 0.5 0 1
66 1 13.7095 45.2772 0 92.9755 124.543 0 -592.667 434.283 32.0315 -35.2935 0.116669 0.993171 1 0.5 0 1
67 1 53.6784 43.6038 0 53.6784 43.6038 0 499.728 -226.161 136.484 -42.3305 0.201671 -0.979453 1 0.5 0 1
68 1 14.6589 40.0007 0 14.6589 40.0007 0 164.167 -541.191 -105.435 -227.874 -0.0705404 -0.997509 1 0.5 0 1
69 1 53.8218 21.5503 0 53.8218 21.5503 0 690.434 -1269.87 -162.104 3.27433 0.994417 -0.105525 1 0.5 0 1
70 1 48.131 38.1084 0 48.131 117.374 0 -277.324 173.031 292.099 -285.479 0.761141 -0.648587 1 0.5 0 1
71 1 60.2153 12.9924 0 139.481 12.9924 0 166.696 -609.85 -93.0134 28.41 -0.0669131 0.997759 1 0.5 0 1
72 1 5.76713 58.445 0 5.76713 58.445 0 163.54 -225.129 122.959 -99.3429 0.462879 -0.886422 1 0.5 0 1
73 1 3.77859 14.1105 0 3.77859 14.1105 0 246.731 -384.761 -50.5803 -3.35304 -0.656326 -0.754477 1 0.5 0 1
74 1 57.5117 21.9337 0 57.5117 101.2 0 -984.474 100.894 39.1716 5.35486 0.987954 -0.154749 1 0.5 0 1
75 1 75.6872 38.977 0 -3.57881 38.977 0 -591.895 -259.397 41.7187 -134.402 0.893868 0.44833 1 0.5 0 1
76 1 41.2352 25.7623 0 -38.0308 25.7623 0 -410.786 688.422 24.8083 15.2738 -0.822124 0.569309 1 0.5 0 1
77 1 78.1801 35.2278 0 -1.08594 35.2278 0 569.221 -137.31 51.0681 -60.8493 0.773158 -0.634213 1 0.5 0 1
78 1 60.3197 16.8691 0 60.3197 96.1351 0 -415.461 -724.272 53.1197 -74.7712 0.269909 -0.962886 1 0.5 0 1
79 1 43.7925 55.5054 0 -35.4735 55.5054 0 163.703 1.39735 -81.6529 32.8369 0.964427 -0.264348 1 0.5 0 1
80 1 78.8451 27.0516 0 -0.420898 -52.2144 0 -692.15 196.005 266.511 86.5631 -0.815397 -0.578903 1 0.5 0 1
81 1 47.5199 35.0662 0 126.786 35.0662 0 -194.121 -271.076 -40.0536 -113.959 0.92094 0.389704 1 0.5 0 1
82 1 0.885007 39.5203 0 0.885007 39.5203 0 441.211 -215.197 -229.319 127.23 0.947662 0.319276 1 0.5 0 1
83 1 41.4965 40.7896 0 120.763 120.056 0 329.601 45.8364 45.0839 -72.0206 -0.829973 0.557803 1 0.5 0 1
84 1 77.0125 44.8571 0 -2.25348 44.8571 0 -358.127 271.04 -27.3968 -133.316 -0.678837 -0.734289 1 0.5 0 1
85 1 8.86255 12.0267 0 8.86255 12.0267 0 -887.53 -438.691 -74.6447 -66.5444 -0.746447 -0.665444 1 0.5 0 1
86 1 10.8315 41.0021 0 10.8315 41.0021 0 50.2189 687.019 1.06187 88.3911 -0.97135 -0.237653 1 0.5 0 1
87 1 10.1659 42.6884 0 10.1659 42.6884 0 -77.7974 -361.728 35.4261 -88.1034 -0.726584 -0.687078 1 0.5 0 1
88 1 21.6386 73.4386 0 21.6386 -5.82737 0 269.402 439.798 -22.7373 97.3808 -0.227373 0.973808 1 0.5 0 1
89 1 23.5582 53.9184 0 23.5582 -25.3476 0 886.744 -38.5619 12.2349 1.90035 -0.400051 -0.916493 1 0.5 0 1
90 1 4.13849 38.7324 0 4.13849 38.7324 0 129.755 910.493 23.8655 -127.475 -0.873097 -0.487547 1 0.5 0 1
91 1 17.0541 60.1088 0 17.0541 -19.1572 0 -474.557 -114.126 -76.3451 -12.8323 0.0881475 -0.996107 1 0.5 0 1
92 1 4.27103 56.2026 0 4.27103 56.2026 0 -378.86 -227.699 136.97 -94.9097 0.921024 0.389507 1 0.5 0 1
93 1 2.49559 46.5422 0 2.49559 46.5422 0 563.134 313.732 114.651 -214.317 -0.450827 0.892611 1 0.5 0 1
94 1 70.0238 37.0554 0 70.0238 37.0554 0 213.47 -603.489 104.076 -7.58926 0.190391 -0.981708 1 0.5 0 1
95 1 66.5842 49.4663 0 66.5842 49.4663 0 -344.708 -10.2196 273.134 -175.705 -0.831742 0.555162 1 0.5 0 1
96 1 53.4461 42.6158 0 53.4461 42.6158 0 25.7807 -790.508 285.496 138.319 -0.797987 -0.602675 1 0.5 0 1
97 1 57.1993 74.2827 0 57.1993 -84.2493 0 413.573 584.745 -26.8531 -96.3271 -0.268531 -0.963271 1 0.5 0 1
98 1 19.7481 50.5553 0 19.7481 50.5553 0 306.707 -66.5662 164.765 132.372 -0.966149 0.257985 1 0.5 0 1
99 1 44.9526 40.0104 0 44.9526 -39.2556 0 -482.23 489.258 -12.7132 -56.6049 0.622097 0.78294 1 0.5 0 1
100 1 72.5028 44.26 0 72.5028 44.26 0 -543.519 -729.056 -64.151 297.17 0.8107 -0.585461 1 0.5 0 1
101 1 49.2069 47.7272 0 49.2069 -31.5388 0 -92.7207 -321.666 378.22 135.27 0.0105585 0.999944 1 0.5 0 1
102 1 78.4473 43.5301 0 -0.818651 43.5301 0 577.274 204.519 -13.0344 32.4584 -0.70186 -0.712315 1 0.5 0 1
103 1 25.7082 55.9685 0 -132.824 135.235 0 -968.891 -1094.38 37.3297 -24.416 -0.844328 -0.535827 1 0.5 0 1
104 1 52.9436 44.2825 0 52.9436 123.549 0 -924.987 170.664 102.296 56.5131 0.951181 0.308633 1 0.5 0 1
105 1 15.7332 26.6635 0 15.7332 26.6635 0 50.4836 -419.819 9.46997 -13.5824 -0.513347 0.858181 1 0.5 0 1
106 1 28.75 38.9554 0 28.75 -40.3106 0 88.8056 -286.828 -46.6101 -88.4732 -0.466101 -0.884732 1 0.5 0 1
107 1 61.3843 37.929 0 61.3843 37.929 0 486.81 -169.821 99.7854 -116.099 0.999771 0.0214209 1 0.5 0 1
108 1 78.668 37.1891 0 -0.597996 116.455 0 794.445 501.476 -252.677 142.825 -0.235488 -0.971877 1 0.5 0 1
109 1 14.1561 24.8383 0 -65.1099 104.104 0 -14.874 481.475 17.1824 10.3285 0.907551 0.419943 1 0.5 0 1
110 1 50.2957 31.3811 0 50.2957 31.3811 0 152.672 -597.134 186.632 86.7217 0.0932342 0.995644 1 0.5 0 1
111 1 73.8423 14.9213 0 73.8423 94.1873 0 -193.206 687.034 -70.6563 -43.1209 0.459125 0.888372 1 0.5 0 1
112 1 11.7198 50.2828 0 11.7198 50.2828 0 -354.341 149.783 -139.154 70.2401 0.654904 0.755712 1 0.5 0 1
113 1 12.1422 27.4509 0 -67.1238 106.717 0 -460.753 140.855 -201.287 98.8005 -0.926295 0.376799 1 0.5 0 1
114 1 53.5488 55.3232 0 53.5488 55.3232 0 54.8544 484.804 -137.971 36.0647 0.982219 -0.187736 1 0.5 0 1
115 1 40.5009 45.2501 0 40.5009 -34.0159 0 79.3056 -1587.8 29.4761 34.8117 0.985264 0.17104 1 0.5 0 1
116 1 58.6243 71.4546 0 58.6243 -87.0774 0 -417.203 -159.02 22.9116 4.81317 0.221836 -0.975084 1 0.5 0 1
117 1 64.4465 67.6923 0 64.4465 -11.5737 0 596.178 361.506 -112.092 -25.0898 0.793055 -0.609149 1 0.5 0 1
118 1 54.2272 41.9353 0 54.2272 41.9353 0 479.88 -1192.09 -34.617 217.7 0.369202 -0.929349 1 0.5 0 1
119 1 23.7667 73.7418 0 182.299 -5.52419 0 -142.899 469.11 97.7787 -20.9599 0.977787 -0.209599 1 0.5 0 1
120 1 44.7347 51.0361 0 124.001 -28.2299 0 95.6241 -143.214 -189.226 130.386 -0.494684 -0.869073 1 0.5 0 1
121 1 50.4112 14.0263 0 -108.121 14.0263 0 756.208 55.206 52.9947 -84.8031 0.529947 -0.848031 1 0.5 0 1
122 1 22.5884 46.478 0 22.5884 125.744 0 403.229 71.0348 -58.2488 29.6366 0.998853 -0.0478802 1 0.5 0 1
123 1 73.9757 31.8656 0 -5.29028 31.8656 0 393.817 354.558 71.1207 -116.029 -0.577336 0.816507 1 0.5 0 1
124 1 23.8106 57.4912 0 -55.4554 -21.7748 0 188.388 -71.8274 118.095 -78.9542 -0.329944 -0.944 1 0.5 0 1
125 1 65.5011 29.3851 0 65.5011 29.3851 0 -216.402 325.184 7.93495 140.8 -0.910999 0.412408 1 0.5 0 1
126 1 8.78973 35.7951 0 88.0557 115.061 0 -131.678 52.8701 76.3021 85.8508 0.939715 -0.341958 1 0.5 0 1
127 1 57.181 31.2218 0 57.181 110.488 0 -183.019 -138.194 -97.6982 -43.9036 -0.749277 0.662256 1 0.5 0 1
128 1 2.02866 26.1358 0 -77.2373 26.1358 0 -85.3959 -569.826 57.6213 1.78348 -0.901864 -0.43202 1 0.5 0 1
129 1 68.3847 57.1598 0 68.3847 -22.1062 0 -877.715 -334.182 49.6454 -10.2871 -0.965611 -0.259992 1 0.5 0 1
130 1 74.46 56.5827 0 74.46 -22.6833 0 -610.898 -623.355 -214.801 -11.0029 -0.98676 -0.162187 1 0.5 0 1
131 1 2.09223 72.8886 0 2.09223 72.8886 0 -688.787 -817.297 39.0259 -40.0479 0.298176 -0.954511 1 0.5 0 1
132 1 59.2572 32.8776 0 -20.0088 112.144 0 157.916 -436.086 -105.243 -119.537 0.510661 0.859782 1 0.5 0 1
133 1 17.8045 50.2219 0 17.8045 129.488 0 -546.369 195.648 54.7684 30.1977 -0.999909 0.0134558 1 0.5 0 1
134 1 12.2316 38.636 0 12.2316 38.636 0 -760.793 -120.588 62.9367 81.7229 0.411441 -0.911436 1 0.5 0 1
135 1 17.0906 55.7363 0 17.0906 135.002 0 471.034 418.535 71.0947 -8.32368 0.678139 0.734934 1 0.5 0 1
136 1 27.4005 1.18973 0 106.667 159.722 0 82.1652 -13.7513 0.140819 99.9999 0.00140819 0.999999 1 0.5 0 1
137 1 35.8257 41.0049 0 115.092 41.0049 0 -261.344 -211.716 -39.0476 11.3207 0.71258 -0.70159 1 0.5 0 1
138 1 47.548 52.7272 0 -31.718 -26.5388 0 -275.197 -531.223 -178.732 42.8066 0.306654 0.951821 1 0.5 0 1
139 1 43.7543 43.439 0 43.7543 -35.827 0 -356.871 497.793 -9.75696 42.7897 -0.211834 -0.977306 1 0.5 0 1
140 1 3.71185 13.0537 0 3.71185 13.0537 0 29.0515 -106.719 73.0273 3.58855 -0.922837 0.385191 1 0.5 0 1
141 1 11.1997 58.3308 0 11.1997 58.3308 0 1136.59 -1038.8 -108.015 -28.941 0.580319 -0.814389 1 0.5 0 1
142 1 17.944 31.2253 0 -61.322 110.491 0 -277.535 -568.701 38.8748 -5.90545 -0.0161197 0.99987 1 0.5 0 1
143 1 10.7542 36.4178 0 10.7542 115.684 0 116.864 -718.742 55.1074 108.291 0.73034 0.683084 1 0.5 0 1
144 1 18.647 34.3067 0 18.647 34.3067 0 -194.597 377.352 -54.4648 5.76578 -0.784882 -0.619645 1 0.5 0 1
145 1 14.9735 67.885 0 94.2395 67.885 0 1362.64 -224.163 16.4446 -12.4264 0.384442 -0.923149 1 0.5 0 1
146 1 60.793 62.7748 0 60.793 -16.4912 0 20.6302 835.016 -11.3823 -141.558 0.427459 -0.904035 1 0.5 0 1
147 1 1.48659 68.7569 0 80.7526 -10.5091 0 131.063 -387.812 15.5507 20.5798 -0.985106 0.171948 1 0.5 0 1
148 1 50.7458 59.2946 0 130.012 59.2946 0 -220.52 930.627 -48.4187 -41.044 -0.386438 0.922315 1 0.5 0 1
149 1 71.3715 31.9885 0 71.3715 111.255 0 -583.301 572.952 -3.47089 -0.451531 -0.945613 0.325294 1 0.5 0 1
150 1 66.4943 36.8723 0 -12.7717 36.8723 0 -386.29 -437.505 9.34724 43.1523 0.868644 0.495436 1 0.5 0 1
151 1 4.79175 58.1224 0 84.0578 -21.1436 0 130.112 -649.783 -117.723 72.0439 -0.553567 -0.832805 1 0.5 0 1
152 1 64.031 65.7207 0 64.031 65.7207 0 544.605 685.24 -89.0175 -125.918 0.0625766 -0.99804 1 0.5 0 1
153 1 77.0869 60.1876 0 77.0869 60.1876 0 -416.842 -517.141 -101.361 247.357 0.940467 -0.339886 1 0.5 0 1
154 1 3.65606 50.5824 0 3.65606 50.5824 0 546.662 -162.315 -244.165 24.1483 0.139794 0.990181 1 0.5 0 1
155 1 70.6342 68.0867 0 -87.8978 -11.1793 0 398.814 582.928 160.593 -149.495 0.251384 0.967888 1 0.5 0 1
156 1 74.444 48.4707 0 74.444 48.4707 0 111.997 -157.646 123.842 11.6282 -0.408863 -0.912596 1 0.5 0 1
157 1 4.81273 30.8134 0 4.81273 30.8134 0 -375.183 981.981 22.261 -16.9849 0.865588 -0.500757 1 0.5 0 1
158 1 67.0987 39.7805 0 -12.1673 39.7805 0 -230.692 329.118 256.508 -85.0165 0.854427 -0.519571 1 0.5 0 1
159 1 5.67342 14.1427 0 5.67342 93.4087 0 203.767 320.026 -34.8249 19.7434 -0.473492 0.880798 1 0.5 0 1
160 1 58.3017 16.5735 0 58.3017 16.5735 0 520.807 111.471 -122.016 -52.6641 0.867257 0.497861 1 0.5 0 1
161 1 18.7022 16.1924 0 18.7022 -63.0736 0 -214.684 60.7735 -88.0679 -47.3713 -0.880679 -0.473713 1 0.5 0 1
162 1 7.14582 53.4075 0 7.14582 53.4075 0 -155.988 -288.454 -48.5087 207.009 -0.795401 -0.606084 1 0.5 0 1
163 1 63.2483 50.1663 0 63.2483 50.1663 0 -907.04 -156.724 -73.9091 419.941 0.81498 0.57949 1 0.5 0 1
164 1 58.357 63.8684 0 58.357 -15.3976 0 -92.4254 -488.236 -108.524 -96.8743 0.902778 0.430106 1 0.5 0 1
165 1 37.3001 77.1116 0 37.3001 77.1116 0 -441.108 300.563 9.45077 99.5524 0.0945077 0.995524 1 0.5 0 1
166 1 10.1322 45.4173 0 10.1322 45.4173 0 -90.9702 278.992 38.2269 -132.438 -0.0036272 0.999993 1 0.5 0 1
167 1 64.8257 30.1109 0 64.8257 30.1109 0 177.774 -230.837 118.098 162.331 0.207925 -0.978145 1 0.5 0 1
168 1 13.8345 67.9845 0 -65.4315 67.9845 0 -49.3323 -469.654 -33.8063 -82.6704 -0.95171 -0.306999 1 0.5 0 1
169 1 21.6921 57.6612 0 -57.5739 136.927 0 -317.437 289.546 90.8428 107.017 -0.850635 -0.525757 1 0.5 0 1
170 1 18.4544 56.0912 0 97.7204 135.357 0 347.308 -370.748 16.7317 55.5983 0.990903 -0.134576 1 0.5 0 1
171 1 61.0335 68.4417 0 140.3 -10.8243 0 78.378 -590.205 22.4156 60.0583 0.997965 -0.0637706 1 0.5 0 1
172 1 9.48188 58.7745 0 9.48188 -20.4915 0 316.879 23.8855 -7.0548 -66.1297 0.756609 -0.653868 1 0.5 0 1
173 1 52.4125 19.1378 0 52.4125 -60.1282 0 -181.067 178.882 -145.746 121.716 0.357894 0.933762 1 0.5 0 1
174 1 10.6216 52.7092 0 10.6216 52.7092 0 -273.713 -169.415 -199.341 51.2912 -0.874092 -0.485761 1 0.5 0 1
175 1 55.7839 64.9752 0 -23.4821 -14.2908 0 -1298.29 -334.996 116.603 137.166 0.64095 0.767582 1 0.5 0 1
176 1 11.995 51.2892 0 11.995 51.2892 0 60.8698 -223.323 14.3137 22.0377 0.935891 0.352289 1 0.5 0 1
177 1 3.45464 70.5079 0 3.45464 70.5079 0 148.921 751.484 -116.632 -120.202 -0.957748 -0.287607 1 0.5 0 1
178 1 56.8273 29.2149 0 -22.4387 108.481 0 145.599 -257.98 128.675 18.3501 -0.983137 -0.182868 1 0.5 0 1
179 1 5.27118 56.4669 0 5.27118 -22.7991 0 581.624 77.9463 99.3482 108.434 0.999899 0.0141782 1 0.5 0 1
180 1 73.7012 41.951 0 73.7012 41.951 0 -1275.81 51.6289 -35.4025 -27.5214 -0.988384 -0.151978 1 0.5 0 1
181 1 74.8508 11.0956 0 74.8508 11.0956 0 -376.1 225.767 21.4442 29.6135 0.923242 0.384219 1 0.5 0 1
182 1 7.79268 72.4204 0 -71.4733 72.4204 0 -140.963 -506.255 -121.848 -27.663 -0.839798 -0.542899 1 0.5 0 1
183 1 58.6105 57.656 0 58.6105 -21.61 0 685.384 751.501 -36.4609 -150.323 -0.814402 -0.5803 1 0.5 0 1
184 1 63.335 43.0346 0 63.335 43.0346 0 -985.886 -190.218 -24.8575 151.071 -0.465438 -0.885081 1 0.5 0 1
185 1 56.6507 17.85 0 -22.6153 17.85 0 113.231 -536.488 -87.4851 43.6222 0.907418 0.42023 1 0.5 0 1
186 1 19.5354 33.7997 0 -59.7306 113.066 0 -517.408 -25.4135 170.936 -12.8928 0.461086 0.887355 1 0.5 0 1
187 1 55.3347 35.1555 0 -23.9313 114.421 0 565.163 274.507 84.8351 -36.5327 0.30951 0.950896 1 0.5 0 1
188 1 65.1568 16.0094 0 144.423 95.2754 0 153.035 -199.252 81.7173 125.985 0.0954785 0.995431 1 0.5 0 1
189 1 66.0602 74.3621 0 -13.2058 74.3621 0 -275.01 -142.175 86.3391 43.6038 0.967644 -0.252319 1 0.5 0 1
190 1 22.0239 53.2663 0 -57.2421 53.2663 0 -330.297 950.357 -23.6089 17.6415 0.325793 0.945441 1 0.5 0 1
191 1 73.5739 76.8211 0 152.84 -2.44487 0 -470.04 -631.581 145.569 -136.319 0.340892 -0.940103 1 0.5 0 1
192 1 58.68 38.0075 0 58.68 38.0075 0 38.9488 -327.737 177.185 -118.266 0.647974 0.761662 1 0.5 0 1
193 1 76.3283 13.7585 0 -2.93772 93.0245 0 -157.266 84.7921 47.3281 35.8849 -0.317998 0.948091 1 0.5 0 1
194 1 16.1912 28.7923 0 16.1912 -50.4737 0 561.534 70.6314 86.6775 -102.294 -0.699087 0.715037 1 0.5 0 1
195 1 53.6092 30.7663 0 53.6092 30.7663 0 -42.1232 -161.934 14.6427 -161.518 -0.661481 0.749962 1 0.5 0 1
196 1 58.5896 41.5488 0 58.5896 41.5488 0 -350.34 -41.3151 -20.5489 -238.023 -0.0068124 -0.999977 1 0.5 0 1
197 1 71.8988 61.1382 0 -7.36724 61.1382 0 -287.277 109.914 -50.4818 59.6235 0.999969 0.00782307 1 0.5 0 1
198 1 73.6658 45.5899 0 73.6658 45.5899 0 -51.4823 505.751 274.422 -113.693 -0.854957 0.518698 1 0.5 0 1
199 1 68.1797 69.0882 0 -11.0863 -10.1778 0 -333.076 284.301 88.9153 -49.322 -0.144395 -0.98952 1 0.5 0 1
200 1 2.21078 17.6292 0 81.4768 96.8952 0 -47.66 -464.751 -138.454 20.2409 -0.798882 0.601487 1 0.5 0 1
201 1 63.5284 13.7763 0 -15.7376 93.0423 0 -647.769 -512.05 -15.9677 52.473 0.369616 0.929185 1 0.5 0 1
202 1 56.3986 59.6569 0 -22.8674 -19.6091 0 134.372 -268.938 47.8097 162.805 0.90689 -0.421368 1 0.5 0 1
203 1 19.241 42.995 0 -60.025 122.261 0 372.576 -319.345 -34.1847 28.1248 -0.510241 0.860031 1 0.5 0 1
204 1 65.2663 63.3514 0 65.2663 -15.9146 0 -640.889 -91.7282 142.157 -64.6439 -0.338096 -0.941112 1 0.5 0 1
205 1 49.8294 20.1832 0 49.8294 99.4492 0 -37.3281 -126.74 -135.467 18.5352 0.53446 0.845193 1 0.5 0 1
206 1 4.25557 59.8099 0 4.25557 -19.4561 0 88.0841 576.463 -38.7057 50.5486 -0.999869 0.0161876 1 0.5 0 1
207 1 60.0821 63.4648 0 60.0821 63.4648 0 297.97 281.04 -245.838 55.3271 0.869526 0.493887 1 0.5 0 1
208 1 9.02198 33.1646 0 9.02198 33.1646 0 475.323 -667.59 -109.203 -115.46 -0.521376 0.853327 1 0.5 0 1
209 1 53.1308 27.7782 0 53.1308 107.044 0 -58.634 716.456 -5.78526 -274.651 0.997368 -0.072506 1 0.5 0 1
210 1 66.7775 62.0596 0 -12.4885 62.0596 0 -622.52 -285.988 -162.311 145.405 -0.788639 0.614857 1 0.5 0 1
211 1 60.6853 43.0796 0 60.6853 43.0796 0 175.907 57.9643 58.6941 -73.7989 0.334943 -0.942238 1 0.5 0 1
212 1 22.2124 45.3334 0 180.744 45.3334 0 -114.293 -446.728 -52.7908 139.276 -0.882607 0.470112 1 0.5 0 1
213 1 70.0485 65.0512 0 70.0485 65.0512 0 -466.215 296.604 125.988 106.266 -0.907141 0.420826 1 0.5 0 1
214 1 28.8203 48.1865 0 28.8203 48.1865 0 -257.167 -421.173 19.3964 -98.1009 0.193964 -0.981009 1 0.5 0 1
215 1 54.9586 61.1018 0 54.9586 -18.1642 0 -230.242 448.525 78.3975 -65.3553 0.803385 0.59546 1 0.5 0 1
216 1 15.3223 47.5536 0 15.3223 126.82 0 -606.479 -635.933 52.22 57.4123 -0.486296 0.873794 1 0.5 0 1
217 1 77.1674 9.5498 0 156.433 88.8158 0 -11.8277 -471.234 -10.6706 -63.7989 0.979178 0.203006 1 0.5 0 1
218 1 46.0384 49.5288 0 46.0384 49.5288 0 -737.358 332.713 88.6164 -136.496 -0.718024 -0.696018 1 0.5 0 1
219 1 53.163 45.266 0 53.163 45.266 0 -466.63 -86.2977 -176.562 -15.5533 -0.738218 -0.674562 1 0.5 0 1
220 1 63.4651 67.3846 0 63.4651 -91.1474 0 134.935 455.885 -6.48192 185.21 0.441591 0.897216 1 0.5 0 1
221 1 47.9142 21.0493 0 -31.3518 179.581 0 -115.749 -760.01 -3.20344 -99.7438 -3.48838e-05 -1 1 0.5 0 1
222 1 42.4609 32.3853 0 42.4609 32.3853 0 -998.341 -230.974 -25.0301 119.193 0.604091 -0.796915 1 0.5 0 1
223 1 71.9375 37.6449 0 -7.3285 37.6449 0 -597.823 -249.379 -48.7509 -5.01367 0.301896 -0.953341 1 0.5 0 1
224 1 76.5383 61.7365 0 -2.72773 61.7365 0 -217.699 114.528 106.089 -26.6538 -0.181391 -0.983411 1 0.5 0 1
225 1 11.9597 26.4653 0 91.2257 -52.8007 0 -241.317 565.244 240.025 -52.6085 -0.0218957 -0.99976 1 0.5 0 1
226 1 24.202 63.0339 0 -55.064 -16.2321 0 127.87 301.389 -31.9164 -94.7699 -0.319164 -0.947699 1 0.5 0 1
227 1 1.27682 37.7992 0 80.5428 37.7992 0 -56.5047 980.065 221.208 -214.057 -0.464369 -0.885642 1 0.5 0 1
228 1 15.9059 65.3194 0 -63.3601 -13.9466 0 173.949 -97.9416 -105.543 -129.243 -0.513821 -0.857898 1 0.5 0 1
229 1 51.3562 41.0266 0 51.3562 41.0266 0 -304.131 87.3918 -69.8512 265.628 -0.0449539 -0.998989 1 0.5 0 1
230 1 51.8896 39.4307 0 51.8896 118.697 0 -159.423 313.595 -99.0337 -99.5302 -0.833594 0.552377 1 0.5 0 1
231 1 4.30976 24.2062 0 4.30976 103.472 0 11.7532 873.396 -72.1042 -114.089 -0.526785 0.849999 1 0.5 0 1
232 1 45.9095 26.8572 0 45.9095 -52.4088 0 139.894 658.684 -50.7165 -57.7948 0.67057 0.741847 1 0.5 0 1
233 1 7.86956 46.5722 0 7.86956 46.5722 0 177.207 29.2349 16.1057 27.6318 0.550376 0.834917 1 0.5 0 1
234 1 65.1423 73.8567 0 65.1423 -5.40934 0 283.967 74.9592 -47.5565 52.7486 0.299248 0.954175 1 0.5 0 1
235 1 24.1092 53.0693 0 24.1092 132.335 0 -1062.54 361.8 -27.323 -6.71556 -0.639043 0.769171 1 0.5 0 1
236 1 55.1443 66.6145 0 134.41 -12.6515 0 -147.732 -1078.49 105.652 98.4194 0.741117 -0.671376 1 0.5 0 1
237 1 70.4426 71.7579 0 70.4426 -7.50806 0 182.853 -184.072 -65.5924 -32.5357 0.157336 -0.987545 1 0.5 0 1
238 1 69.1171 21.9327 0 69.1171 101.199 0 734.715 218.082 85.647 -91.5212 0.999385 0.0350607 1 0.5 0 1
239 1 3.48953 43.1577 0 82.7555 43.1577 0 635.34 -52.0215 -138.198 60.2142 0.205432 -0.978671 1 0.5 0 1
240 1 71.9278 18.0303 0 71.9278 18.0303 0 -445.803 128.164 4.96935 -60.339 0.790526 -0.612428 1 0.5 0 1
241 1 47.9289 37.0684 0 47.9289 37.0684 0 -450.106 -16.0125 -128.147 -123.374 -0.0324357 -0.999474 1 0.5 0 1
242 1 6.12406 64.1857 0 85.3901 -15.0803 0 584.276 -542.689 -67.219 138.846 0.697109 0.716965 1 0.5 0 1
243 1 60.5002 71.1833 0 -98.0318 71.1833 0 577.32 -228.509 15.253 -60.7494 -0.837198 -0.546899 1 0.5 0 1
244 1 60.6876 25.9086 0 60.6876 105.175 0 765.919 111.761 -222.566 70.7247 0.244249 -0.969712 1 0.5 0 1
245 1 56.3566 51.6454 0 56.3566 51.6454 0 163.349 -324.942 -33.7702 71.9339 -0.0709922 -0.997477 1 0.5 0 1
246 1 48.9155 42.1334 0 48.9155 42.1334 0 136.632 218.886 -158.157 78.7242 -0.351174 -0.93631 1 0.5 0 1
247 1 67.7769 54.2082 0 67.7769 -25.0578 0 -194.351 468.965 -38.8637 238.067 0.262548 -0.964919 1 0.5 0 1
248 1 41.9986 9.92494 0 -37.2674 9.92494 0 287.867 327.393 100.807 14.0597 0.999431 -0.0337239 1 0.5 0 1
249 1 39.5736 44.9 0 118.84 -34.366 0 -216.117 -196.023 -54.7674 -83.6087 0.999805 -0.0197619 1 0.5 0 1
250 1 55.3367 67.6062 0 213.869 67.6062 0 -128.777 -1200.52 177.483 39.4234 -0.224341 -0.974511 1 0.5 0 1
251 1 63.4885 16.5319 0 63.4885 175.064 0 137.171 19.319 -10.7326 -69.4123 0.550712 0.834695 1 0.5 0 1
252 1 60.1399 21.9666 0 60.1399 101.233 0 -242.516 -317.76 152.125 190.914 -0.924331 -0.381592 1 0.5 0 1
253 1 16.8477 49.9829 0 16.8477 49.9829 0 -358.122 -199.858 -81.8502 -191.261 -0.999653 -0.0263346 1 0.5 0 1
254 1 47.3042 34.0638 0 47.3042 113.33 0 -686.107 253.46 -94.6933 134.952 -0.0373358 -0.999303 1 0.5 0 1
255 1 1.49959 35.1598 0 80.7656 114.426 0 -84.061 -47.6909 -90.593 39.921 0.00594308 0.999982 1 0.5 0 1
256 1 68.6503 43.0652 0 -10.6157 43.0652 0 185.569 -248.754 -18.1249 -54.761 -0.573087 0.819495 1 0.5 0 1
257 1 7.71666 39.0815 0 7.71666 118.347 0 506.818 -446.657 63.2985 95.9156 -0.982057 -0.188582 1 0.5 0 1
258 1 6.82847 27.8471 0 6.82847 -51.4189 0 206.835 -150.693 -133.413 58.7038 0.77106 0.636762 1 0.5 0 1
259 1 36.1023 37.5761 0 36.1023 37.5761 0 109.776 -377.057 -66.5949 -72.0776 -0.336005 -0.94186 1 0.5 0 1
260 1 71.0562 70.059 0 150.322 -9.20704 0 -155.8 505.387 -105.729 -61.4415 0.995085 -0.0990253 1 0.5 0 1
261 1 10.5442 23.5866 0 10.5442 23.5866 0 -112.025 19.3264 15.5692 -13.8111 -0.999845 -0.0176299 1 0.5 0 1
262 1 56.6122 60.6335 0 135.878 -18.6325 0 289.645 -184.537 112.814 -26.9324 -0.628141 -0.778099 1 0.5 0 1
263 1 78.7018 72.6812 0 -79.8302 -85.8508 0 -9.9816 244.518 -21.7561 -48.2429 0.631708 -0.775206 1 0.5 0 1
264 1 18.8581 38.1364 0 177.39 -41.1296 0 60.3147 -193.373 -78.9738 -32.2063 -0.993644 0.112567 1 0.5 0 1
265 1 52.5261 29.3941 0 52.5261 108.66 0 -617.876 72.1617 144.984 -144.492 0.82149 -0.570222 1 0.5 0 1
266 1 55.8156 53.2825 0 55.8156 53.2825 0 149.765 358.705 115.827 77.2841 0.97926 0.202606 1 0.5 0 1
267 1 73.2832 63.3851 0 -5.98281 -15.8809 0 -298.195 -62.4077 -22.5318 -22.3871 -0.563025 -0.82644 1 0.5 0 1
268 1 67.3452 60.4491 0 67.3452 60.4491 0 -541.537 404.472 -37.8117 -7.70836 0.93495 -0.35478 1 0.5 0 1
269 1 18.4541 57.1418 0 97.7201 57.1418 0 -800.522 -374.856 22.8024 54.6768 -0.0307504 0.999527 1 0.5 0 1
270 1 21.1279 5.40969 0 21.1279 5.40969 0 -230.019 415.238 -49.9652 -79.6719 -0.858879 -0.512179 1 0.5 0 1
271 1 78.0514 5.80827 0 78.0514 5.80827 0 108.606 -75.9501 -88.3127 -105.115 0.988896 -0.148611 1 0.5 0 1
272 1 50.9418 39.1075 0 50.9418 39.1075 0 241.985 352.438 48.6863 -167.382 0.999513 0.0312104 1 0.5 0 1
273 1 59.7998 50.8483 0 59.7998 50.8483 0 139.15 -34.3204 -123.587 64.4212 -0.984914 -0.173046 1 0.5 0 1
274 1 15.1261 14.3334 0 94.3921 14.3334 0 5.87231 -86.8025 82.3871 56.6777 0.823871 0.566777 1 0.5 0 1
275 1 8.9207 64.2491 0 88.1867 -15.0169 0 -274.28 197.826 -12.2735 -13.9 0.411995 0.911186 1 0.5 0 1
276 1 57.7115 45.8052 0 57.7115 45.8052 0 -351.951 226.607 159.556 112.116 -0.127228 0.991873 1 0.5 0 1
277 1 21.7667 1.14076 0 21.7667 1.14076 0 271.156 238.592 86.2158 -50.664 0.862158 -0.50664 1 0.5 0 1
278 1 9.99456 33.4429 0 -69.2714 112.709 0 -268.617 432.473 48.7024 -89.0123 0.187879 -0.982192 1 0.5 0 1
279 1 18.4993 43.6673 0 97.7653 -114.865 0 22.7616 432.088 -100.105 70.5716 -0.956581 0.291466 1 0.5 0 1
280 1 1.97821 75.4345 0 -77.2878 -83.0975 0 435.764 -195.274 -31.013 0.767738 0.110678 -0.993856 1 0.5 0 1
281 1 69.1428 56.4915 0 69.1428 56.4915 0 255.776 57.4273 -74.7415 18.7295 -0.979104 0.203362 1 0.5 0 1
282 1 47.5188 48.1255 0 47.5188 -31.1405 0 -463.416 394.122 64.1987 -11.296 0.372097 -0.928194 1 0.5 0 1
283 1 68.8629 32.1303 0 -10.4031 111.396 0 158.532 452.027 -309.553 -134.996 -0.870728 -0.491764 1 0.5 0 1
284 1 5.56567 30.1658 0 5.56567 109.432 0 -74.2561 275.175 54.1166 -136.126 0.998458 0.0555065 1 0.5 0 1