ITEM: TIMESTEP
300000
ITEM: NUMBER OF ATOMS
4000
ITEM: BOX BOUNDS pp pp pp
0.0000000000000000e+00 7.9266000000000005e+01
0.0000000000000000e+00 7.9266000000000005e+01
-5.0000000000000000e-01 5.0000000000000000e-01
ITEM: ATOMS id type x y z xu yu zu vx vy fx fy mux muy mu radius omegaz mass
1 1 0.619864 64.1657 0 79.8859 64.1657 0 -474.393 152.658 99.7612 70.9583 -0.976667 -0.214761 1 0.5 0 1
2 1 57.7325 16.2349 0 57.7325 16.2349 0 481.956 -266.404 45.1954 -99.0194 0.56857 0.822635 1 0.5 0 1
3 1 15.2135 35.0968 0 15.2135 -44.1692 0 85.237 -403.84 -136.212 -84.2537 -0.698981 0.715141 1 0.5 0 1
4 1 35.3917 45.5896 0 35.3917 45.5896 0 68.6512 -393.31 -48.1238 -41.9021 -0.178557 -0.98393 1 0.5 0 1
5 1 2.7501 30.9362 0 2.7501 30.9362 0 93.3361 415.465 108.372 -32.1954 -0.776597 0.629997 1 0.5 0 1
6 1 69.9004 28.1201 0 -9.36558 28.1201 0 -671.898 47.6667 -68.8206 113.644 -0.487313 -0.873227 1 0.5 0 1
7 1 67.0669 48.659 0 67.0669 48.659 0 -689.686 -72.0118 -260.898 -80.3636 -0.44959 0.893235 1 0.5 0 1
8 1 15.8496 38.0339 0 15.8496 -41.2321 0 -182.522 485.014 -12.457 25.0745 -0.874766 -0.484545 1 0.5 0 1
9 1 68.8966 25.399 0 68.8966 25.399 0 -586.854 -149.353 81.1639 85.4314 -0.00827414 -0.999966 1 0.5 0 1
10 1 17.9808 53.5372 0 17.9808 53.5372 0 719.105 -175.235 -52.8043 -187.956 -0.745434 -0.666579 1 0.5 0 1
11 1 20.8597 73.1863 0 -58.4063 -6.07966 0 -147.554 -111.185 -99.9073 4.30417 -0.999073 0.0430417 1 0.5 0 1
12 1 0.815246 22.2129 0 80.0812 101.479 0 -1034.66 -544.398 131.034 -269.59 0.532354 0.846522 1 0.5 0 1
13 1 75.5096 68.856 0 75.5096 -10.41 0 -337.646 -247.206 36.815 -16.8466 0.160266 -0.987074 1 0.5 0 1
14 1 42.7927 32.3647 0 -115.739 32.3647 0 -117.573 150.834 -47.2216 53.5446 -0.0443829 0.999015 1 0.5 0 1
15 1 10.4337 33.5871 0 10.4337 33.5871 0 -159.089 -55.6858 -44.2322 -110.969 -0.954374 0.298615 1 0.5 0 1
16 1 16.7126 48.3737 0 -62.5534 -30.8923 0 106.446 -142.635 30.1616 -36.3384 -0.812987 0.582282 1 0.5 0 1
17 1 40.5324 41.2397 0 119.798 120.506 0 -278.223 287.696 -10.3686 110.364 0.536083 0.844166 1 0.5 0 1
18 1 21.5413 58.7778 0 21.5413 58.7778 0 552.841 558.197 78.7679 -3.69184 0.988867 -0.148801 1 0.5 0 1
19 1 4.07078 40.3758 0 4.07078 40.3758 0 -370.954 -453.899 -46.1235 89.0421 0.963173 -0.268883 1 0.5 0 1
20 1 13.6226 55.4991 0 13.6226 55.4991 0 253.571 -26.4044 -147.054 -28.5532 0.634498 -0.772924 1 0.5 0 1
21 1 3.85575 27.6531 0 3.85575 27.6531 0 -545.106 28.1783 205.556 -83.232 -0.995345 -0.0963722 1 0.5 0 1
22 1 2.26407 20.7156 0 81.5301 20.7156 0 208.257 -759.075 -130.527 35.8008 -0.991023 -0.133689 1 0.5 0 1
23 1 25.7442 34.4321 0 105.01 34.4321 0 888.533 436.865 7.72824 -71.1387 0.711613 0.702571 1 0.5 0 1
24 1 65.955 56.4311 0 65.955 -22.8349 0 162.553 -135.08 94.0768 146.389 0.976102 -0.217314 1 0.5 0 1
25 1 48.2675 29.476 0 -30.9985 -49.79 0 -308.703 -167.129 7.65863 25.6979 0.999883 -0.0153288 1 0.5 0 1
26 1 51.322 56.0233 0 51.322 -102.509 0 324.512 3.81078 13.0473 -10.2333 0.470059 -0.882635 1 0.5 0 1
27 1 74.7413 16.405 0 -4.5247 95.671 0 -430.285 222.768 -260.958 60.3286 -0.510709 0.859754 1 0.5 0 1
28 1 45.9616 16.5756 0 45.9616 95.8416 0 -310.705 330.022 31.8001 -27.9946 0.840777 0.541382 1 0.5 0 1
29 1 73.8655 37.308 0 -5.40051 37.308 0 12.96 250.424 -71.464 -258.151 -0.999196 -0.0400908 1 0.5 0 1
30 1 62.1578 13.4989 0 62.1578 92.7649 0 -1006.53 -53.1859 -27.4704 11.0928 0.640504 0.767955 1 0.5 0 1
31 1 74.624 25.9622 0 -4.64203 25.9622 0 -71.1904 297.281 188.683 -10.2108 -0.856198 0.516648 1 0.5 0 1
32 1 78.7153 11.0108 0 -0.550704 11.0108 0 -1435.02 30.0009 71.0478 -100.783 -0.8673 0.497785 1 0.5 0 1
33 1 64.3884 57.7574 0 64.3884 -21.5086 0 171.822 928.29 32.7701 -187.353 0.824394 -0.566016 1 0.5 0 1
34 1 5.73808 43.62 0 85.0041 43.62 0 566.971 367.274 -123.713 -46.2842 0.711395 0.702792 1 0.5 0 1
35 1 31.2259 48.4893 0 -48.0401 48.4893 0 152.01 -126.002 71.6322 -84.6657 0.87032 -0.492486 1 0.5 0 1
36 1 59.9016 57.164 0 59.9016 -22.102 0 1253.55 -474.796 -138.889 231.021 0.915763 0.401719 1 0.5 0 1
37 1 69.6406 41.3233 0 69.6406 41.3233 0 127.787 -81.5254 265.181 1.20182 -0.965509 0.260369 1 0.5 0 1
38 1 67.3747 11.3892 0 146.641 90.6552 0 1036.58 -54.7083 -137.756 72.3185 0.458819 0.88853 1 0.5 0 1
39 1 10.8935 18.976 0 90.1595 -60.29 0 -407.392 -320.329 -0.274459 34.4431 -0.358073 0.933694 1 0.5 0 1
40 1 47.4848 7.39182 0 -31.7812 86.6578 0 -508.329 467.581 68.2773 81.2232 0.463123 0.886294 1 0.5 0 1
41 1 68.6 51.9036 0 68.6 51.9036 0 370.371 20.2106 142.066 37.4035 0.282515 0.959263 1 0.5 0 1
42 1 74.0681 58.7503 0 -5.19788 58.7503 0 359.272 439.487 152.783 1.84241 -0.473505 -0.880791 1 0.5 0 1
43 1 0.0894738 13.1453 0 -79.1765 92.4113 0 -173.232 249.619 206.69 -120.24 -0.281643 0.959519 1 0.5 0 1
44 1 64.711 19.7632 0 64.711 99.0292 0 -884.832 -148.522 39.3934 105.774 -0.996529 0.0832443 1 0.5 0 1
45 1 27.6988 29.5416 0 27.6988 -49.7244 0 -84.5588 385.314 -83.2722 -69.5504 -0.611701 -0.791089 1 0.5 0 1
46 1 6.66719 40.4398 0 6.66719 40.4398 0 378.431 411.051 131.713 -102.315 -0.742977 0.669317 1 0.5 0 1
47 1 57.7042 60.1709 0 57.7042 -19.0951 0 600.951 -657.495 -37.6178 -47.9767 -0.0774037 -0.997 1 0.5 0 1
48 1 11.5096 45.6293 0 11.5096 45.6293 0 108.643 54.2082 -114.364 38.8227 -0.896539 -0.442965 1 0.5 0 1
49 1 56.9835 14.4437 0 56.9835 93.7097 0 412.759 124.041 -50.042 16.5305 -0.937367 0.348343 1 0.5 0 1
50 1 23.3006 27.0058 0 23.3006 27.0058 0 1062.39 -576.105 -43.4451 -90.0695 -0.434451 -0.900695 1 0.5 0 1
51 1 39.3209 2.70506 0 -39.9451 2.70506 0 -143.654 548.384 -84.4991 53.4781 -0.844991 0.534781 1 0.5 0 1
52 1 3.92854 32.2202 0 83.1945 32.2202 0 -988.695 121.767 4.99194 165.463 -0.414323 0.91013 1 0.5 0 1
53 1 10.7742 54.401 0 10.7742 133.667 0 65.5428 751.731 -240.112 -57.7799 -0.664698 0.747112 1 0.5 0 1
54 1 53.4033 28.8222 0 53.4033 28.8222 0 343.492 -191.444 -102.099 -110.62 -0.146651 0.989188 1 0.5 0 1
55 1 20.0493 40.4095 0 99.3153 119.675 0 -24.831 28.8598 29.4242 26.7942 -0.742908 0.669393 1 0.5 0 1
56 1 27.2781 40.2191 0 27.2781 40.2191 0 279.509 388.263 92.9025 -37.0016 0.929025 -0.370016 1 0.5 0 1
57 1 20.4292 33.7595 0 20.4292 113.025 0 380.393 134.555 -68.4934 -47.811 -0.937338 0.348422 1 0.5 0 1
58 1 68.1418 26.1522 0 -11.1242 26.1522 0 -434.78 231.232 35.7901 317.008 -0.928565 -0.371169 1 0.5 0 1
59 1 52.2883 32.9999 0 52.2883 32.9999 0 -329.839 253.328 -3.25359 -65.4849 -0.997478 -0.0709739 1 0.5 0 1
60 1 56.3834 39.6667 0 56.3834 39.6667 0 -519.271 -514.526 255.796 -229.813 -0.295637 -0.9553 1 0.5 0 1
61 1 58.9944 43.1924 0 58.9944 43.1924 0 129.607 -49.1234 -82.0868 -126.681 -0.14541 0.989371 1 0.5 0 1
62 1 57.2571 18.9277 0 136.523 18.9277 0 86.5771 -112.247 -66.2545 -60.2359 0.772789 0.634663 1 0.5 0 1
63 1 13.1941 59.1462 0 -66.0719 -20.1198 0 -572.01 214.316 19.6258 20.5078 0.920824 0.389978 1 0.5 0 1
64 1 47.4516 26.9826 0 126.718 106.249 0 -685.959 94.0812 48.495 22.6306 -0.0886221 0.996065 1 0.5 0 1
65 1 3.33517 75.4385 0 161.867 75.4385 0 113.161 793.186 91.883 18.7909 0.997758 0.0669317 1 0.5 0 1
66 1 12.9393 44.2783 0 92.2053 123.544 0 249.656 -917.948 -92.2066 259.554 -0.337878 0.94119 1 0.5 0 1
67 1 54.2443 41.5543 0 54.2443 41.5543 0 642.871 1044.18 98.4217 -105.389 -0.660587 -0.750749 1 0.5 0 1
68 1 14.6018 40.3381 0 14.6018 40.3381 0 -791.14 -853.193 50.8904 17.2466 -0.339589 0.940574 1 0.5 0 1
69 1 39.6285 27.0842 0 39.6285 27.0842 0 5.11697 410.443 25.2063 -96.7711 0.252063 -0.967711 1 0.5 0 1
70 1 48.5702 37.008 0 48.5702 116.274 0 -122.991 -657.931 57.0679 -1.47595 0.887608 -0.4606 1 0.5 0 1
71 1 78.9359 14.8094 0 78.9359 14.8094 0 271.12 36.561 131.191 -6.48257 0.886103 0.463489 1 0.5 0 1
72 1 3.19223 56.0338 0 3.19223 56.0338 0 -558.769 444.114 184.663 -113.015 -0.640075 -0.768312 1 0.5 0 1
73 1 3.57474 12.0235 0 3.57474 12.0235 0 182.295 441.451 -24.6149 3.38887 -0.907034 0.421056 1 0.5 0 1
74 1 57.3234 20.9914 0 57.3234 100.257 0 -360.542 122.696 -17.616 30.8935 0.307261 0.951625 1 0.5 0 1
75 1 75.5192 36.9197 0 -3.74685 36.9197 0 -72.8586 170.192 -59.0989 239.788 -0.496796 0.867867 1 0.5 0 1
76 1 48.7857 24.5593 0 -30.4803 24.5593 0 464.764 -543.289 -76.9288 7.83518 0.457086 0.889423 1 0.5 0 1
77 1 78.1271 33.2821 0 -1.13886 33.2821 0 44.5861 -147.618 134.951 -55.3052 0.799003 0.601327 1 0.5 0 1
78 1 53.9991 13.5345 0 53.9991 92.8005 0 -871.903 358.996 27.0884 96.2612 0.270884 0.962612 1 0.5 0 1
79 1 50.4194 74.4151 0 -28.8466 74.4151 0 444.723 -938.577 2.5149 -90.4986 -0.676039 -0.736866 1 0.5 0 1
80 1 0.804935 25.7314 0 0.804935 -53.5346 0 -355.825 -606.066 -22.5097 114.736 0.288633 0.95744 1 0.5 0 1
81 1 48.0062 34.0235 0 127.272 34.0235 0 413.115 -539.061 -63.7874 95.7015 -0.0753535 -0.997157 1 0.5 0 1
82 1 0.751423 37.4873 0 0.751423 37.4873 0 -573.944 690.134 259.145 -19.267 0.34054 0.94023 1 0.5 0 1
83 1 40.8589 42.2146 0 120.125 121.481 0 -45.3883 -39.0935 32.1556 46.0212 0.951655 0.30717 1 0.5 0 1
84 1 76.1502 43.3943 0 -3.11582 43.3943 0 -220.897 684.673 -16.5539 -239.965 -0.985856 -0.167597 1 0.5 0 1
85 1 62.5038 9.90945 0 62.5038 9.90945 0 1100.69 503.091 -29.6322 77.4889 -0.561712 0.827333 1 0.5 0 1
86 1 10.7438 39.0899 0 10.7438 39.0899 0 796.537 10.5622 -117.802 -99.53 -0.98816 -0.153427 1 0.5 0 1
87 1 11.2145 41.0068 0 11.2145 41.0068 0 -436.726 138.964 72.0883 28.653 -0.868394 -0.495876 1 0.5 0 1
88 1 14.8261 62.4201 0 14.8261 -16.8459 0 426.93 -450.833 -2.12592 132.465 -0.911657 -0.410953 1 0.5 0 1
89 1 42.2903 26.6587 0 42.2903 26.6587 0 883.597 -271.586 6.32066 -99.8 0.0632066 -0.998 1 0.5 0 1
90 1 4.05089 36.7708 0 4.05089 36.7708 0 -1056.37 -272.05 236.592 192.065 -0.97522 0.221235 1 0.5 0 1
91 1 14.661 56.9025 0 14.661 -22.3635 0 98.2885 -256.215 -2.75578 -46.9746 -0.350905 -0.936411 1 0.5 0 1
92 1 2.67865 53.1354 0 2.67865 53.1354 0 111.573 321.505 -29.9356 -231.08 -0.911002 -0.412403 1 0.5 0 1
93 1 1.38363 43.9068 0 1.38363 43.9068 0 -242.72 -762.367 2.1388 59.3162 -0.2424 0.970176 1 0.5 0 1
94 1 69.8618 35.1193 0 69.8618 35.1193 0 -752.491 320.093 24.2084 2.11452 0.692667 -0.721257 1 0.5 0 1
95 1 66.856 47.6386 0 66.856 47.6386 0 107.125 -305.234 -94.7108 10.2078 0.0933008 -0.995638 1 0.5 0 1
96 1 53.9966 40.5875 0 53.9966 40.5875 0 -1179.99 19.6849 102.947 -38.6688 -0.185656 -0.982615 1 0.5 0 1
97 1 33.47 56.5539 0 33.47 -22.7121 0 -364.302 60.8742 -9.32409 -99.5644 -0.0932409 -0.995644 1 0.5 0 1
98 1 28.3306 54.3364 0 28.3306 54.3364 0 -436.809 394.358 -99.9555 2.98441 -0.999555 0.0298441 1 0.5 0 1
99 1 42.9761 39.9331 0 42.9761 -39.3329 0 -295.596 -234.389 1.3555 146.638 0.639554 0.768746 1 0.5 0 1
100 1 72.4312 42.2395 0 72.4312 42.2395 0 399.576 376.738 -404.593 -26.879 -0.136411 -0.990652 1 0.5 0 1
101 1 49.9621 45.4253 0 49.9621 -33.8407 0 243.236 315.843 -17.9318 -31.1837 0.942554 0.334053 1 0.5 0 1
102 1 78.2997 41.3329 0 -0.966276 41.3329 0 718.127 -450.199 -138.008 133.987 -0.903104 -0.429423 1 0.5 0 1
103 1 17.82 76.7175 0 -61.446 155.984 0 1214.86 579.693 -71.6 69.8101 -0.716 0.698101 1 0.5 0 1
104 1 53.5325 42.1743 0 53.5325 121.44 0 61.4483 -319.109 -5.35384 245.681 0.79495 0.606675 1 0.5 0 1
105 1 72.0737 10.5243 0 -7.19231 10.5243 0 -810.422 -620.807 107.465 133.969 0.992211 -0.124565 1 0.5 0 1
106 1 5.89245 75.6117 0 5.89245 -3.65427 0 -313.835 -334.7 96.132 27.5434 0.96132 0.275434 1 0.5 0 1
107 1 61.7607 36.0611 0 61.7607 36.0611 0 292.839 160.974 10.0444 -239.281 -0.0470493 -0.998893 1 0.5 0 1
108 1 78.6143 35.22 0 -0.651731 114.486 0 143.859 -616.116 -33.9104 -100.875 0.718809 -0.695208 1 0.5 0 1
109 1 17.6932 10.6927 0 -61.5728 89.9587 0 -590.305 -84.5933 -83.9636 54.315 -0.839636 0.54315 1 0.5 0 1
110 1 50.915 29.7617 0 50.915 29.7617 0 -217.705 15.267 344.985 -117.992 -0.994398 -0.105702 1 0.5 0 1
111 1 72.888 12.1857 0 72.888 91.4517 0 525.3 -507.711 -84.3062 57.8079 -0.458469 0.88871 1 0.5 0 1
112 1 10.3162 47.8554 0 10.3162 47.8554 0 438.73 -306.813 -27.7078 182.649 0.521237 -0.853412 1 0.5 0 1
113 1 15.3458 29.0638 0 -63.9202 108.33 0 128.484 -507.745 -28.3498 -14.8954 -0.767797 0.640693 1 0.5 0 1
114 1 54.1767 53.159 0 54.1767 53.159 0 -200.105 195.529 -107.292 -218.417 0.905841 -0.423618 1 0.5 0 1
115 1 35.3332 55.2685 0 35.3332 -23.9975 0 -369.642 -175.472 61.1511 -79.1236 0.611511 -0.791236 1 0.5 0 1
116 1 19.6514 42.1452 0 19.6514 -37.1208 0 43.4401 -179.383 -47.8135 -23.3586 0.883974 -0.467536 1 0.5 0 1
117 1 48.682 12.9423 0 48.682 12.9423 0 20.647 129.423 -1.86564 -44.0831 -0.0607233 -0.998155 1 0.5 0 1
118 1 54.7213 39.9644 0 54.7213 39.9644 0 441.891 -217.293 106.545 88.7877 0.84699 -0.531608 1 0.5 0 1
119 1 55.4879 19.0491 0 134.754 19.0491 0 31.2097 293.053 40.6249 -25.6024 0.93615 0.3516 1 0.5 0 1
120 1 46.5914 49.8526 0 125.857 -29.4134 0 198.109 -825.021 185.922 -17.2045 -0.348161 -0.937435 1 0.5 0 1
121 1 32.8801 58.5641 0 -125.652 -20.7019 0 -48.7127 -87.6492 -68.1971 32.9591 -0.956042 0.293231 1 0.5 0 1
122 1 34.0071 1.70192 0 34.0071 80.9679 0 -19.7287 -390.817 -53.5869 -58.813 -0.859341 -0.511403 1 0.5 0 1
123 1 74.8199 30.4297 0 -4.44614 30.4297 0 -780.536 -677.984 177.942 227.512 -0.927217 0.374525 1 0.5 0 1
124 1 76.0618 75.1146 0 -3.20421 -4.15145 0 -144.323 357.579 -36.7677 -92.9954 -0.367677 -0.929954 1 0.5 0 1
125 1 66.3832 26.7431 0 66.3832 26.7431 0 -225.364 400.206 125.131 -76.8586 0.637261 -0.770648 1 0.5 0 1
126 1 8.74713 33.9182 0 88.0131 113.184 0 -564.219 -1030.4 80.9085 6.25553 0.925121 0.379671 1 0.5 0 1
127 1 57.903 29.4927 0 57.903 108.759 0 773.464 700.583 -55.3606 -115.01 0.730501 0.682912 1 0.5 0 1
128 1 3.28408 24.6269 0 -75.9819 24.6269 0 -223.58 100.913 -117.508 -118.968 -0.569794 0.821787 1 0.5 0 1
129 1 67.664 56.1146 0 67.664 -23.1514 0 -144.41 469.786 85.0994 94.1156 0.995637 -0.0933163 1 0.5 0 1
130 1 73.5828 54.9164 0 73.5828 -24.3496 0 149.448 -73.2456 -154.802 103.117 0.133752 -0.991015 1 0.5 0 1
131 1 1.15728 76.8191 0 1.15728 76.8191 0 804.36 -177.791 54.5179 -5.79439 0.672865 -0.739765 1 0.5 0 1
132 1 59.9545 31.0381 0 -19.3115 110.304 0 385.987 1081.23 -89.4447 -187.197 0.98379 0.179323 1 0.5 0 1
133 1 19.8338 49.3899 0 19.8338 128.656 0 -402.687 81.9835 13.7605 -113.4 -0.879504 -0.475892 1 0.5 0 1
134 1 11.9791 36.7954 0 11.9791 36.7954 0 945.385 -827.68 -93.2818 11.9983 -0.71578 -0.698326 1 0.5 0 1
135 1 13.9539 52.0283 0 13.9539 131.294 0 -723.951 -303.254 37.175 -4.3281 -0.326515 0.945192 1 0.5 0 1
136 1 1.19187 74.3047 0 80.4579 74.3047 0 -704.762 582.36 93.0979 -24.5573 0.936683 -0.350178 1 0.5 0 1
137 1 47.5654 11.159 0 126.831 90.425 0 -667.503 -290.048 107.325 -56.7844 0.0606785 -0.998157 1 0.5 0 1
138 1 48.4772 50.2992 0 -30.7888 -28.9668 0 -235.636 -283.681 30.8423 -40.5033 0.99643 0.0844195 1 0.5 0 1
139 1 42.847 42.6332 0 42.847 -36.6328 0 -413.532 35.0828 71.3201 -24.3464 -0.009517 -0.999955 1 0.5 0 1
140 1 4.64244 12.8542 0 4.64244 12.8542 0 178.494 -146.054 40.3891 -18.3512 -0.784136 0.620589 1 0.5 0 1
141 1 8.39617 56.2818 0 8.39617 56.2818 0 -412.895 209.773 132.603 112.158 0.510176 0.86007 1 0.5 0 1
142 1 41.941 70.2648 0 -37.325 70.2648 0 92.0645 -152.367 -99.8452 -5.56129 -0.998452 -0.0556129 1 0.5 0 1
143 1 10.6518 34.5514 0 10.6518 113.817 0 -527.227 -70.4412 90.913 40.9519 0.958168 0.286205 1 0.5 0 1
144 1 27.1147 59.0274 0 27.1147 -20.2386 0 639.442 113.39 36.8867 -7.99321 0.795859 0.605482 1 0.5 0 1
145 1 4.08223 74.6257 0 83.3482 74.6257 0 -274.916 288.009 -23.3139 51.325 0.492725 -0.870185 1 0.5 0 1
146 1 59.7888 61.8259 0 59.7888 -17.4401 0 161.787 -72.048 -321.364 -63.7006 0.877194 -0.480136 1 0.5 0 1
147 1 79.2131 68.1628 0 79.2131 -11.1032 0 -1323.58 -807.19 -90.0736 156.533 -0.845571 -0.533862 1 0.5 0 1
148 1 50.545 56.7752 0 129.811 56.7752 0 -1.77024 1252.17 -40.7769 -92.6551 0.131556 0.991309 1 0.5 0 1
149 1 71.9808 29.6425 0 71.9808 108.908 0 504.435 725.229 -4.03012 128.235 -0.964076 0.265626 1 0.5 0 1
150 1 66.8676 34.3207 0 -12.3984 34.3207 0 -304.764 -63.4519 -162.056 50.9153 0.354524 0.935047 1 0.5 0 1
151 1 2.31802 55.6786 0 81.584 -23.5874 0 50.544 373.222 -127.838 -48.4081 0.902503 -0.430683 1 0.5 0 1
152 1 59.9994 63.9332 0 59.9994 63.9332 0 973.793 830.16 101.108 -32.7111 0.972879 -0.231314 1 0.5 0 1
153 1 75.8164 58.5911 0 75.8164 58.5911 0 288.891 385.585 109.726 -147.819 0.900694 -0.434455 1 0.5 0 1
154 1 2.34852 47.7895 0 2.34852 47.7895 0 -64.6357 510.092 -59.3553 -251.079 0.539055 0.842271 1 0.5 0 1
155 1 67.1056 65.3687 0 -91.4264 -13.8973 0 389.408 -186.792 18.6422 -86.5807 0.207742 -0.978184 1 0.5 0 1
156 1 73.5413 47.0298 0 73.5413 47.0298 0 -390.87 -442.352 -87.6972 99.5032 -0.999207 -0.0398204 1 0.5 0 1
157 1 5.82011 28.3127 0 5.82011 28.3127 0 -397.207 -187.909 99.1106 92.564 0.968463 -0.249157 1 0.5 0 1
158 1 67.1369 37.8346 0 -12.1291 37.8346 0 565.771 -591.542 -183.934 -71.9725 -0.613522 -0.789678 1 0.5 0 1
159 1 19.7296 73.4794 0 19.7296 73.4794 0 -126.066 179.732 -52.4209 105.509 -0.741223 0.671259 1 0.5 0 1
160 1 2.18754 73.7728 0 2.18754 -5.49319 0 -1058.92 -112.155 -11.8957 17.4438 0.466538 -0.884501 1 0.5 0 1
161 1 38.1511 38.268 0 38.1511 -40.998 0 493.343 -602.904 50.4833 -86.3217 0.504833 -0.863217 1 0.5 0 1
162 1 5.64856 50.5952 0 5.64856 50.5952 0 -767.728 -8.43792 123.784 130.511 -0.394474 -0.918907 1 0.5 0 1
163 1 63.6026 48.3651 0 63.6026 48.3651 0 -127.048 463.356 164.784 -41.9072 -0.238281 0.971196 1 0.5 0 1
164 1 55.7147 63.9855 0 55.7147 -15.2805 0 212.438 -274.923 26.7335 63.9835 0.0454732 -0.998966 1 0.5 0 1
165 1 9.69511 19.0098 0 9.69511 19.0098 0 -117.229 -474.89 23.6127 70.849 0.393667 0.919253 1 0.5 0 1
166 1 10.0633 43.3168 0 10.0633 43.3168 0 -373.557 -92.8345 -52.5481 -126.264 0.768714 0.639592 1 0.5 0 1
167 1 65.5411 27.3992 0 65.5411 27.3992 0 175.892 581.659 118.407 279.779 0.476942 -0.878935 1 0.5 0 1
168 1 26.9385 26.5069 0 -52.3275 105.773 0 -425.92 339.69 -99.6215 -8.69283 -0.996215 -0.0869283 1 0.5 0 1
169 1 41.6251 65.4711 0 -37.6409 144.737 0 -415.07 896.23 -97.7904 -20.9053 -0.977904 -0.209053 1 0.5 0 1
170 1 14.7254 51.3881 0 93.9914 130.654 0 335.795 -253.363 30.5297 89.4581 -0.99967 0.0256757 1 0.5 0 1
171 1 52.58 5.23913 0 131.846 5.23913 0 166.987 -9.57903 22.2206 -29.8361 -0.215447 -0.976515 1 0.5 0 1
172 1 6.71539 56.5007 0 6.71539 -22.7653 0 699.623 473.021 11.5944 55.281 -0.222351 -0.974967 1 0.5 0 1
173 1 19.9911 46.4319 0 19.9911 -32.8341 0 -65.6538 133.163 65.4639 -94.0338 0.256724 -0.966485 1 0.5 0 1
174 1 8.34352 50.6935 0 8.34352 50.6935 0 272.635 41.1424 -52.8078 120.94 -0.0276182 0.999619 1 0.5 0 1
175 1 51.6841 63.6911 0 -27.5819 -15.5749 0 156.93 -9.56838 31.2219 -55.1416 -0.0273275 -0.999627 1 0.5 0 1
176 1 9.84442 49.4441 0 9.84442 49.4441 0 -183.836 -219.634 -27.6958 233.517 0.255953 0.966689 1 0.5 0 1
177 1 5.73459 63.8251 0 5.73459 63.8251 0 -323.45 -199.179 -43.4964 -152.295 -0.990848 0.134981 1 0.5 0 1
178 1 57.51 27.5564 0 -21.756 106.822 0 -221.438 -295.904 3.77744 62.7229 -0.848927 0.52851 1 0.5 0 1
179 1 3.62058 53.4433 0 3.62058 -25.8227 0 530.083 57.701 49.1922 -47.7217 0.357348 -0.933971 1 0.5 0 1
180 1 73.6003 39.9271 0 73.6003 39.9271 0 -57.829 294.707 -65.9688 -92.7024 -0.0481056 0.998842 1 0.5 0 1
181 1 61.945 14.9113 0 61.945 14.9113 0 -525.822 -539.16 71.7333 -25.2765 0.0441752 0.999024 1 0.5 0 1
182 1 28.0606 69.2837 0 -51.2054 69.2837 0 -807.951 6.01891 -80.6384 -59.1393 -0.806384 -0.591393 1 0.5 0 1
183 1 58.8767 55.8804 0 58.8767 -23.3856 0 -136.362 -474.325 -87.8483 -216.644 0.409496 0.912312 1 0.5 0 1
184 1 63.6428 41.1667 0 63.6428 41.1667 0 -572.288 285.555 -104.66 43.2648 -0.2517 -0.967805 1 0.5 0 1
185 1 0.106853 77.9856 0 0.106853 -1.28036 0 108.275 36.9697 -91.5468 -21.0109 -0.974388 -0.224873 1 0.5 0 1
186 1 69.7685 10.2475 0 -9.49747 89.5135 0 289.794 -132.121 86.3706 4.0968 -0.96111 0.276167 1 0.5 0 1
187 1 55.9146 33.3571 0 -23.3514 112.623 0 -384.193 16.8319 -74.1184 -272.108 0.602311 0.798261 1 0.5 0 1
188 1 59.4426 14.8305 0 138.709 94.0965 0 86.098 128.361 -12.0236 -47.3149 0.680461 0.732784 1 0.5 0 1
189 1 16.7814 67.9429 0 16.7814 67.9429 0 139.743 -923.983 -87.5518 48.3185 -0.875518 0.483185 1 0.5 0 1
190 1 19.5463 51.9297 0 -59.7197 51.9297 0 366.605 -97.7041 101.61 97.5418 -0.999666 -0.0258513 1 0.5 0 1
191 1 65.7043 16.3336 0 144.97 16.3336 0 262.705 -621.142 4.33748 157.434 -0.331389 -0.943494 1 0.5 0 1
192 1 59.1637 36.134 0 59.1637 36.134 0 -41.5857 -15.4113 -81.0973 -47.3742 0.995307 0.0967714 1 0.5 0 1
193 1 69.7843 79.1949 0 -9.48174 79.1949 0 238.213 337.149 89.3346 69.6187 0.773758 0.633482 1 0.5 0 1
194 1 18.9213 78.0882 0 18.9213 -1.17779 0 954.886 -491.955 14.2112 -100.642 0.272005 -0.962296 1 0.5 0 1
195 1 54.3177 29.1516 0 54.3177 29.1516 0 -476.165 179.46 -211.507 -6.31932 -0.782348 -0.622841 1 0.5 0 1
196 1 59.0073 39.6163 0 59.0073 39.6163 0 1077.92 132.815 -190.519 213.463 -0.978952 -0.204089 1 0.5 0 1
197 1 70.7815 60.143 0 -8.48448 60.143 0 532.131 -394.794 260.109 -49.4823 0.982404 -0.186767 1 0.5 0 1
198 1 73.5862 43.5166 0 73.5862 43.5166 0 -354.881 287.24 8.99042 -313.763 -0.244396 0.969675 1 0.5 0 1
199 1 63.3137 66.3904 0 -15.9523 -12.8756 0 -641.078 698.456 144.882 48.5136 -0.404213 -0.914665 1 0.5 0 1
200 1 0.72062 12.3891 0 79.9866 91.6551 0 -260.639 -155.264 38.7487 73.0162 -0.0620003 0.998076 1 0.5 0 1
201 1 38.1299 50.035 0 38.1299 50.035 0 -756.312 -921.448 52.9847 38.087 0.0694247 0.997587 1 0.5 0 1
202 1 56.4986 57.7383 0 -22.7674 -21.5277 0 -194.214 -737.216 -98.2752 125.873 0.525224 -0.850964 1 0.5 0 1
203 1 40.7775 11.0516 0 -38.4885 90.3176 0 -157.946 -197.276 25.2774 -5.31864 -0.419237 0.907877 1 0.5 0 1
204 1 64.1506 62.3858 0 64.1506 -16.8802 0 -892.779 56.6293 3.68839 45.9642 -0.888998 -0.457912 1 0.5 0 1
205 1 11.3746 75.7275 0 11.3746 75.7275 0 -410.755 157.068 26.3642 130.341 0.340505 0.940243 1 0.5 0 1
206 1 1.59967 57.2594 0 1.59967 -22.0066 0 151.985 34.3853 259.255 2.56114 0.150919 0.988546 1 0.5 0 1
207 1 56.1458 61.3988 0 56.1458 61.3988 0 -123.531 382.703 -43.2857 147.36 0.137547 -0.990495 1 0.5 0 1
208 1 9.06411 31.2896 0 9.06411 31.2896 0 167.512 520.753 -101.957 -7.30715 -0.372314 0.928107 1 0.5 0 1
209 1 53.7692 26.2097 0 53.7692 105.476 0 936.806 -794.992 -8.56015 -81.8751 0.454639 0.890676 1 0.5 0 1
210 1 65.7512 61.0166 0 -13.5148 61.0166 0 915.808 795.019 -192.754 -239.582 -0.789301 0.614007 1 0.5 0 1
211 1 61.0972 41.1933 0 61.0972 41.1933 0 1010.77 850.785 -167.368 3.94213 0.390049 -0.920794 1 0.5 0 1
212 1 49.1911 22.8731 0 207.723 22.8731 0 -764.125 -715.334 5.39068 28.4999 -0.14035 0.990102 1 0.5 0 1
213 1 68.7388 64.1078 0 68.7388 64.1078 0 -132.573 333.384 26.1743 46.6645 0.993015 -0.117988 1 0.5 0 1
214 1 33.9002 10.7048 0 33.9002 89.9708 0 -414.239 -97.854 -83.9828 -54.2852 -0.839828 -0.542852 1 0.5 0 1
215 1 54.9013 58.9594 0 54.9013 -20.3066 0 -29.2885 -321.547 -36.9751 102.894 0.462835 -0.886445 1 0.5 0 1
216 1 15.2377 45.9146 0 15.2377 125.181 0 -67.1633 29.3357 -33.0803 50.9221 -0.891548 0.452927 1 0.5 0 1
217 1 35.7682 58.9405 0 115.034 58.9405 0 -356.901 348.593 48.9816 95.687 0.395317 0.918545 1 0.5 0 1
218 1 46.7942 47.213 0 46.7942 47.213 0 729.348 -0.63947 -30.9679 -171.541 -0.0586613 -0.998278 1 0.5 0 1
219 1 53.7887 43.1364 0 53.7887 43.1364 0 36.2889 370.379 -136.981 -1.30852 -0.186873 -0.982384 1 0.5 0 1
220 1 51.1716 75.7305 0 51.1716 -82.8015 0 -182.043 532.602 48.1707 -87.6332 0.481707 -0.876332 1 0.5 0 1
221 1 69.2204 8.17468 0 -10.0456 166.707 0 -735.92 337.545 -13.4341 -66.4777 -0.872241 0.489076 1 0.5 0 1
222 1 32.0979 10.4628 0 32.0979 10.4628 0 165.893 576.14 36.9424 92.9261 0.369424 0.929261 1 0.5 0 1
223 1 71.7503 35.7344 0 -7.51571 35.7344 0 9.16415 525.263 -4.88472 -19.7281 -0.999992 0.00407026 1 0.5 0 1
224 1 75.0704 60.158 0 -4.1956 60.158 0 179.31 71.9601 34.6199 111.919 -0.858287 -0.51317 1 0.5 0 1
225 1 19.1379 32.3677 0 98.4039 -46.8983 0 -427.296 -33.6312 -5.92053 3.89938 -0.895018 0.446031 1 0.5 0 1
226 1 5.50753 69.4319 0 5.50753 -9.83411 0 -70.7476 -109.341 -63.6877 -172.268 -0.413729 0.9104 1 0.5 0 1
227 1 1.22513 35.8098 0 80.4911 35.8098 0 -1137.04 -417.175 17.4764 73.0509 -0.727054 -0.68658 1 0.5 0 1
228 1 8.3663 73.9858 0 -70.8997 -5.28018 0 519.325 -359.272 57.2935 -81.9601 0.572935 -0.819601 1 0.5 0 1
229 1 51.8065 38.9824 0 51.8065 38.9824 0 9.76441 -445.326 -176.365 97.9217 -0.975143 -0.221576 1 0.5 0 1
230 1 52.2843 37.4328 0 52.2843 116.699 0 -328.634 -398.732 114.831 -19.5172 -0.196755 0.980453 1 0.5 0 1
231 1 5.20247 21.2721 0 5.20247 100.538 0 418.19 371.688 -2.61737 -24.1322 -0.99956 0.0296464 1 0.5 0 1
232 1 48.0261 25.318 0 48.0261 -53.948 0 154.771 229.208 -58.7281 -104.039 0.912803 0.4084 1 0.5 0 1
233 1 6.68537 43.9536 0 6.68537 43.9536 0 -155.559 -65.3817 -272.811 219.401 -0.888202 0.459454 1 0.5 0 1
234 1 25.1572 55.8521 0 25.1572 -23.4139 0 -465.539 1086.45 105.736 48.0949 0.67738 0.735633 1 0.5 0 1
235 1 39.369 41.0537 0 39.369 120.32 0 -354.714 -51.6287 114.325 -66.8234 0.216013 0.976391 1 0.5 0 1
236 1 41.9707 28.9877 0 121.237 28.9877 0 -171.173 351.078 48.0615 -117.061 0.529511 -0.848303 1 0.5 0 1
237 1 68.3305 69.8614 0 68.3305 -9.40462 0 193.369 -775.24 106.658 117.945 0.421173 -0.906981 1 0.5 0 1
238 1 72.0603 20.0627 0 72.0603 99.3287 0 -256.764 169.052 58.823 210.131 -0.684863 0.728672 1 0.5 0 1
239 1 3.35649 41.033 0 82.6225 41.033 0 699.468 547.984 -62.1703 -119.852 0.846367 -0.532601 1 0.5 0 1
240 1 72.763 15.8477 0 72.763 15.8477 0 -5.39028 271.81 31.8994 -29.7137 0.18021 -0.983628 1 0.5 0 1
241 1 48.3359 36.017 0 48.3359 36.017 0 -195.496 253.57 7.63099 161.221 -0.735611 0.677404 1 0.5 0 1
242 1 1.2341 61.662 0 80.5001 -17.604 0 848.556 289.613 -172.901 52.7278 0.799633 0.60049 1 0.5 0 1
243 1 7.96733 75.3163 0 -71.2987 75.3163 0 307.242 -198.62 -96.6237 -25.7654 -0.966237 -0.257654 1 0.5 0 1
244 1 61.4159 24.3098 0 61.4159 103.576 0 68.1749 9.33277 61.4669 -215.918 0.903827 -0.427898 1 0.5 0 1
245 1 56.9186 49.6631 0 56.9186 49.6631 0 -90.3001 -156.031 -42.2066 -38.692 -0.712438 0.701735 1 0.5 0 1
246 1 49.2942 39.9345 0 49.2942 39.9345 0 -226.31 367.115 159.114 -133.106 -0.297622 -0.954684 1 0.5 0 1
247 1 67.1213 53.2145 0 67.1213 -26.0515 0 -269.273 -622.441 51.759 103.069 -0.400104 -0.91647 1 0.5 0 1
248 1 9.25721 2.06614 0 -70.0088 81.3321 0 -184.55 52.2521 32.5234 -94.5634 0.325234 -0.945634 1 0.5 0 1
249 1 10.2428 68.6314 0 89.5088 -10.6346 0 1153.26 -105.533 69.2285 -76.6511 0.539302 -0.842113 1 0.5 0 1
250 1 3.98192 78.4237 0 162.514 78.4237 0 248.723 -374.851 93.0108 36.7287 0.930108 0.367287 1 0.5 0 1
251 1 23.8 16.959 0 23.8 175.491 0 1083.27 26.0739 29.9102 -61.538 0.796078 -0.605194 1 0.5 0 1
252 1 60.8508 20.3759 0 60.8508 99.6419 0 337.494 154.262 -137.543 146.981 0.717937 0.696108 1 0.5 0 1
253 1 18.2527 46.9686 0 18.2527 46.9686 0 351.534 219.067 -130.623 51.4011 -0.946395 -0.323012 1 0.5 0 1
254 1 47.8802 33.0369 0 47.8802 112.303 0 -196.63 123.68 47.5442 -80.7887 0.770031 0.638007 1 0.5 0 1
255 1 1.47967 33.2214 0 80.7457 112.487 0 -569.107 -672.079 108.607 118.875 -0.988134 0.153592 1 0.5 0 1
256 1 68.7398 41.0273 0 -10.5262 41.0273 0 288.188 623.208 -308.817 -170.914 0.323554 -0.94621 1 0.5 0 1
257 1 7.64869 37.1145 0 7.64869 116.381 0 357.34 -162.164 24.9543 81.0817 0.551817 -0.833965 1 0.5 0 1
258 1 7.83762 25.2571 0 7.83762 -54.0089 0 280.288 460.897 -75.965 148.013 -0.0104942 0.999945 1 0.5 0 1
259 1 56.4446 64.7446 0 56.4446 64.7446 0 -338.678 299.893 39.6481 -36.9774 -0.713576 -0.700578 1 0.5 0 1
260 1 67.1104 66.396 0 146.376 -12.87 0 128.26 960.832 122.668 119.629 0.99993 -0.0118408 1 0.5 0 1
261 1 58.3421 67.3631 0 -20.9239 -11.9029 0 -53.0001 -346.068 -65.992 -3.09854 0.844741 0.535176 1 0.5 0 1
262 1 56.6193 58.7714 0 135.885 -20.4946 0 225.436 214.572 -3.66458 -18.0817 0.996118 0.0880303 1 0.5 0 1
263 1 23.2289 22.1362 0 -56.0371 -57.1298 0 -703.144 61.464 -99.6646 -8.18345 -0.996646 -0.0818345 1 0.5 0 1
264 1 29.7736 72.097 0 188.306 -7.16895 0 406.425 469.6 46.0794 -102.575 0.297532 -0.954712 1 0.5 0 1
265 1 53.2188 27.8302 0 53.2188 107.096 0 -664.379 385.665 153.948 -1.06949 0.999973 0.00735557 1 0.5 0 1
266 1 56.389 51.2755 0 56.389 51.2755 0 -517.081 -1169.21 112.269 64.6877 0.614596 0.788842 1 0.5 0 1
267 1 71.9456 62.583 0 -7.32041 -16.683 0 297.961 -435.095 -155.62 -134.853 -0.735793 -0.677207 1 0.5 0 1
268 1 66.3758 59.3972 0 66.3758 59.3972 0 54.2579 905.505 50.1537 -40.6086 0.999911 0.0133207 1 0.5 0 1
269 1 14.9421 52.4036 0 94.2081 52.4036 0 421.89 -177.558 41.044 -56.2745 -0.826611 0.562774 1 0.5 0 1
270 1 27.2881 64.0104 0 106.554 -15.2556 0 -136.169 217.871 -8.10217 -17.3329 -0.351779 0.936083 1 0.5 0 1
271 1 64.443 14.9014 0 64.443 14.9014 0 -533.891 -2.16401 65.5747 -14.9783 0.999532 -0.030604 1 0.5 0 1
272 1 51.3254 37.0753 0 51.3254 37.0753 0 150.72 125.507 -148.715 294.158 0.0441719 -0.999024 1 0.5 0 1
273 1 60.2981 48.9311 0 60.2981 48.9311 0 462.839 259.678 -86.8216 62.7238 0.848513 0.529174 1 0.5 0 1
274 1 35.301 16.2509 0 35.301 16.2509 0 276.965 51.6852 -2.79272 -68.0462 0.696624 -0.717436 1 0.5 0 1
275 1 6.27565 60.1384 0 85.5416 -19.1276 0 405.68 493.196 28.2971 -9.87457 -0.943217 0.332178 1 0.5 0 1
276 1 58.2973 43.8446 0 58.2973 43.8446 0 -214.181 454.599 -83.9957 51.1647 0.79007 0.613016 1 0.5 0 1
277 1 32.1751 24.2393 0 -47.0909 24.2393 0 -4.60424 -218.203 97.4935 22.249 0.974935 0.22249 1 0.5 0 1
278 1 9.99775 31.5902 0 -69.2682 110.856 0 17.4977 -202.182 -96.5831 -42.24 -0.921425 -0.388556 1 0.5 0 1
279 1 37.9787 17.4689 0 117.245 -61.7971 0 140.971 850.87 21.0808 -15.7154 0.307975 -0.951394 1 0.5 0 1
280 1 45.8911 5.94381 0 -33.3749 -73.3222 0 783.964 -748.22 -99.8474 5.5232 -0.998474 0.055232 1 0.5 0 1
281 1 68.4663 55.4809 0 68.4663 55.4809 0 372.73 560.152 -232.646 -186.363 -0.973176 -0.230064 1 0.5 0 1
282 1 48.2226 45.7864 0 48.2226 -33.4796 0 568.76 -494.47 340 348.494 0.383758 -0.923434 1 0.5 0 1
283 1 69.3479 29.7553 0 -9.91812 109.021 0 345.187 181.352 -61.2816 -29.2619 -0.1636 0.986527 1 0.5 0 1
284 1 6.58134 27.6689 0 6.58134 106.935 0 -374.876 166.214 -72.5326 -32.5367 0.972088 0.234616 1 0.5 0 1
285 1 65.6582 33.0058 0 65.6582 33.0058 0 442.784 196.01 8.0757 57.9863 0.951563 -0.307453 1 0.5 0 1