ITEM: TIMESTEP
390000
ITEM: NUMBER OF ATOMS
4000
ITEM: BOX BOUNDS pp pp pp
0.0000000000000000e+00 7.9266000000000005e+01
0.0000000000000000e+00 7.9266000000000005e+01
-5.0000000000000000e-01 5.0000000000000000e-01
ITEM: ATOMS id type x y z xu yu zu vx vy fx fy mux muy mu radius omegaz mass
1 1 3.64121 64.3963 0 82.9072 64.3963 0 192.224 684.76 -9.87806 149.208 -0.713823 -0.700326 1 0.5 0 1
2 1 61.2618 19.0476 0 61.2618 19.0476 0 394.029 -534.814 -190.65 101.502 0.625407 -0.780299 1 0.5 0 1
3 1 16.3652 35.3353 0 16.3652 -43.9307 0 169.413 389.015 -45.1173 -28.5249 0.904566 -0.426334 1 0.5 0 1
4 1 3.74211 15.1498 0 3.74211 15.1498 0 -360.777 -183.41 130.142 107.509 -0.98353 -0.180747 1 0.5 0 1
5 1 1.98504 32.4259 0 1.98504 32.4259 0 76.7086 -327.749 2.63545 42.6805 -0.492577 0.870269 1 0.5 0 1
6 1 69.3737 30.4673 0 -9.89235 30.4673 0 -108.969 889.316 50.0525 -139.078 0.846325 0.532667 1 0.5 0 1
7 1 66.7143 49.9595 0 66.7143 49.9595 0 499.928 204.295 -5.57817 151.352 0.0600874 0.998193 1 0.5 0 1
8 1 16.7624 37.3051 0 16.7624 -41.9609 0 280.79 -489.698 120.586 68.8055 -0.354131 -0.935196 1 0.5 0 1
9 1 67.9617 28.1591 0 67.9617 28.1591 0 -108.491 -349.415 -31.2814 124.534 -0.352008 -0.935997 1 0.5 0 1
10 1 21.0203 55.5402 0 21.0203 55.5402 0 192.052 529.354 4.79883 -58.5126 -0.68062 -0.732637 1 0.5 0 1
11 1 74.7591 8.95013 0 -83.7729 8.95013 0 -76.1744 329.963 -1.94777 16.6579 -0.891101 0.453804 1 0.5 0 1
12 1 79.151 23.7062 0 79.151 102.972 0 666.955 -368.66 194.514 -35.8882 -0.61533 -0.78827 1 0.5 0 1
13 1 77.2276 68.7105 0 77.2276 -10.5555 0 130.187 -260.246 40.4499 -60.5476 -0.186292 0.982494 1 0.5 0 1
14 1 18.5585 42.9509 0 -139.974 42.9509 0 41.7475 -825.599 -83.0248 15.1734 -0.790752 -0.612137 1 0.5 0 1
15 1 10.6031 35.1133 0 10.6031 35.1133 0 -610.461 -721.25 -77.2812 -90.5889 -0.959693 0.281049 1 0.5 0 1
16 1 15.8135 50.8551 0 -63.4525 -28.4109 0 -11.591 325.156 -25.5958 145.382 -0.978274 0.207314 1 0.5 0 1
17 1 40.3905 39.3818 0 119.657 118.648 0 350.902 -591.487 30.5704 12.8526 0.99897 0.0453743 1 0.5 0 1
18 1 77.557 79.207 0 -1.70904 -0.0590308 0 148.002 99.7226 -99.2533 -12.1976 -0.992533 -0.121976 1 0.5 0 1
19 1 4.35462 42.2864 0 4.35462 42.2864 0 -260.597 222.566 286.482 -24.3024 -0.381673 0.924298 1 0.5 0 1
20 1 15.0784 57.9208 0 15.0784 57.9208 0 373.703 69.9025 -102.144 85.1999 0.776895 0.62963 1 0.5 0 1
21 1 2.96474 29.1092 0 2.96474 29.1092 0 111.917 -20.8926 17.7591 112.34 0.243406 0.969924 1 0.5 0 1
22 1 1.42025 22.5083 0 80.6863 22.5083 0 -738.075 -785.172 -43.6505 34.1661 -0.999908 0.0135899 1 0.5 0 1
23 1 38.6049 45.3447 0 117.871 45.3447 0 -110.866 71.1011 26.1618 37.6102 0.681394 -0.731917 1 0.5 0 1
24 1 65.9272 57.5144 0 65.9272 -21.7516 0 328.377 680.372 51.757 59.9375 0.0252796 -0.99968 1 0.5 0 1
25 1 46.8139 28.9481 0 -32.4521 -50.3179 0 24.4945 209.71 73.1958 -81.4922 0.357374 -0.933962 1 0.5 0 1
26 1 51.4863 57.8052 0 51.4863 -100.727 0 -510.018 -476.386 67.9416 2.88719 0.991636 0.129064 1 0.5 0 1
27 1 73.9573 20.1139 0 -5.30869 99.3799 0 204.047 -167.231 67.6324 -271.568 -0.860345 -0.509713 1 0.5 0 1
28 1 34.7403 79.2142 0 34.7403 79.2142 0 -189.475 260.912 -97.7833 -20.9385 -0.977833 -0.209385 1 0.5 0 1
29 1 74.104 39.1179 0 -5.16201 39.1179 0 162.897 -13.8047 69.9466 -43.8702 -0.509313 -0.860581 1 0.5 0 1
30 1 70.8031 11.4737 0 70.8031 90.7397 0 798.844 52.428 -84.3654 -79.8909 0.844921 0.534892 1 0.5 0 1
31 1 73.907 27.3298 0 -5.35903 27.3298 0 -148.275 -92.3871 62.7579 -200.57 -0.850411 0.526119 1 0.5 0 1
32 1 3.11054 16.821 0 3.11054 16.821 0 -263.734 238.692 113.664 60.231 0.307057 0.951691 1 0.5 0 1
33 1 64.3883 58.797 0 64.3883 -20.469 0 -306.204 653.095 61.7995 -86.4904 -0.43429 -0.900773 1 0.5 0 1
34 1 6.17697 45.6135 0 85.443 45.6135 0 -139.744 -351.006 18.226 -101.663 0.28706 0.957913 1 0.5 0 1
35 1 43.1338 35.69 0 -36.1322 35.69 0 332.734 32.4377 81.5568 25.3198 0.996393 -0.0848632 1 0.5 0 1
36 1 59.6731 58.3482 0 59.6731 -20.9178 0 77.8748 -147.291 97.6588 181.924 -0.93051 0.366266 1 0.5 0 1
37 1 69.5976 43.0059 0 69.5976 43.0059 0 -204.666 -1103.58 -67.7057 -234.109 -0.507029 0.861929 1 0.5 0 1
38 1 75.6049 13.2255 0 154.871 92.4915 0 323.353 -245.579 -105.042 -151.506 0.8239 -0.566736 1 0.5 0 1
39 1 8.00647 23.955 0 87.2725 -55.311 0 -7.98797 297.904 -79.8746 -47.7065 0.239911 -0.970795 1 0.5 0 1
40 1 56.2051 19.1006 0 -23.0609 98.3666 0 504.888 475.869 -28.7295 16.8851 0.311261 0.950324 1 0.5 0 1
41 1 68.5143 53.0611 0 68.5143 53.0611 0 916.201 -413.549 -155.909 265.61 0.999894 0.0145652 1 0.5 0 1
42 1 74.7557 60.4557 0 -4.5103 60.4557 0 -775.985 349.731 76.154 -159.807 0.144462 -0.98951 1 0.5 0 1
43 1 0.399342 16.6291 0 -78.8667 95.8951 0 -102.691 462.598 -110.793 48.9266 -0.477559 -0.8786 1 0.5 0 1
44 1 65.1483 21.444 0 65.1483 100.71 0 -557.534 127.408 103.742 -116.673 -0.447485 0.894292 1 0.5 0 1
45 1 10.1945 68.5751 0 10.1945 -89.9569 0 -324.685 564.09 24.1373 -31.2397 0.369002 -0.929428 1 0.5 0 1
46 1 6.95654 42.2527 0 6.95654 42.2527 0 523.508 -699.603 -209.36 37.1673 -0.917864 0.396896 1 0.5 0 1
47 1 57.7933 61.3627 0 57.7933 -17.9033 0 174.297 -340.574 -28.255 72.7142 -0.899515 -0.43689 1 0.5 0 1
48 1 12.0292 47.1232 0 12.0292 47.1232 0 -12.2427 -454.327 67.7012 35.6186 -0.251116 -0.967957 1 0.5 0 1
49 1 15.9654 72.0608 0 15.9654 72.0608 0 902.709 -132.029 69.1915 43.2739 0.876047 -0.482225 1 0.5 0 1
50 1 60.2912 15.0918 0 -18.9748 15.0918 0 441.988 -321.719 -15.274 36.2449 -0.164647 0.986353 1 0.5 0 1
51 1 64.2544 72.3844 0 -94.2776 -6.88156 0 516.685 -393.045 150.304 60.1279 -0.35012 -0.936705 1 0.5 0 1
52 1 3.18434 33.7034 0 82.4503 33.7034 0 814.624 421.83 -161.996 63.9263 -0.314937 0.949113 1 0.5 0 1
53 1 12.6101 55.3682 0 12.6101 134.634 0 465.94 813.29 -87.491 -22.6499 -0.989398 -0.145228 1 0.5 0 1
54 1 52.5191 29.9777 0 52.5191 29.9777 0 163.389 513.595 44.8297 108.486 -0.905594 0.424146 1 0.5 0 1
55 1 17.6007 43.886 0 96.8667 123.152 0 54.2725 -1.59592 -123.354 -152.228 -0.832358 -0.554239 1 0.5 0 1
56 1 41.9389 38.1444 0 41.9389 38.1444 0 -1021.43 85.1792 48.6824 -11.0401 0.745713 0.666268 1 0.5 0 1
57 1 12.3615 24.5734 0 12.3615 103.839 0 273.21 -341.376 44.5222 -105.672 -0.994988 -0.0999933 1 0.5 0 1
58 1 67.2492 28.8495 0 -12.0168 28.8495 0 -144.223 331.338 -193.895 -48.8238 -0.703084 0.711107 1 0.5 0 1
59 1 51.6243 34.2108 0 51.6243 34.2108 0 239.589 386.955 -91.7155 139.027 0.689815 -0.723985 1 0.5 0 1
60 1 55.7187 41.1622 0 55.7187 41.1622 0 -347.158 -511.624 -62.2137 -55.307 0.997288 0.0735917 1 0.5 0 1
61 1 58.2874 44.6614 0 58.2874 44.6614 0 26.2491 490.686 -18.2818 -94.4006 0.875482 -0.48325 1 0.5 0 1
62 1 57.0804 20.4809 0 136.346 20.4809 0 431.155 423.626 5.23082 -303.076 0.790571 0.61237 1 0.5 0 1
63 1 13.0042 61.0241 0 -66.2618 -18.2419 0 987.488 -121.952 -161.646 12.3695 0.211309 0.977419 1 0.5 0 1
64 1 44.5425 27.4563 0 123.808 106.722 0 -640.245 504.348 120.47 56.4178 -0.577972 0.816056 1 0.5 0 1
65 1 42.8411 30.7967 0 201.373 110.063 0 756.98 345.035 -49.0096 -30.8721 0.859717 0.510771 1 0.5 0 1
66 1 13.4334 45.6353 0 92.6994 124.901 0 152.031 -584.759 -52.7705 110.229 0.855814 0.517284 1 0.5 0 1
67 1 53.4158 43.0636 0 53.4158 43.0636 0 -304.208 244.716 289.021 237.26 -0.596186 -0.802846 1 0.5 0 1
68 1 14.695 40.5318 0 14.695 40.5318 0 301.803 -397.041 83.5889 136.047 -0.282113 -0.959381 1 0.5 0 1
69 1 53.5892 21.3012 0 53.5892 21.3012 0 -771.928 -198.297 55.3089 43.312 0.975423 0.220342 1 0.5 0 1
70 1 47.8946 37.4417 0 47.8946 116.708 0 -189.242 -643.973 2.82889 -89.7576 0.673503 -0.739184 1 0.5 0 1
71 1 59.8585 76.8592 0 139.124 -2.40681 0 1076.22 347.374 -15.6453 36.8693 0.625251 0.780424 1 0.5 0 1
72 1 4.99036 57.5561 0 4.99036 57.5561 0 75.7856 346.306 -142.175 91.5567 -0.566591 -0.823999 1 0.5 0 1
73 1 3.69148 14.1264 0 3.69148 14.1264 0 -399.25 135.975 -80.3209 47.8085 -0.640963 0.767572 1 0.5 0 1
74 1 57.4545 22.5014 0 57.4545 101.767 0 -307.651 -360.564 52.9667 -63.1044 0.995836 -0.0911661 1 0.5 0 1
75 1 75.7848 38.7972 0 -3.48125 38.7972 0 -99.922 356.646 162.007 -233.349 0.914359 0.404905 1 0.5 0 1
76 1 47.1773 22.694 0 -32.0887 22.694 0 -325.348 372.302 23.7332 -49.4631 -0.0973907 0.995246 1 0.5 0 1
77 1 78.3913 35.1467 0 -0.874656 35.1467 0 -714.506 171.967 29.7218 -86.0383 0.949279 0.314435 1 0.5 0 1
78 1 60.1796 17.6804 0 60.1796 96.9464 0 239.809 85.1569 -87.4928 70.3206 0.813897 -0.581009 1 0.5 0 1
79 1 43.5206 56.2775 0 -35.7454 56.2775 0 -134.361 621.447 69.4603 -102.902 0.561837 -0.827248 1 0.5 0 1
80 1 79.1398 27.2764 0 -0.126184 -51.9896 0 528.836 10.1825 -201.938 -79.5229 -0.659271 -0.751905 1 0.5 0 1
81 1 47.2981 34.4761 0 126.564 34.4761 0 187.911 217.587 -78.6128 -232.007 0.560047 0.828461 1 0.5 0 1
82 1 1.07727 39.3188 0 1.07727 39.3188 0 -532.288 397.58 -171.88 115.056 0.991984 0.12636 1 0.5 0 1
83 1 41.362 39.7754 0 120.628 119.041 0 67.2019 385.124 -40.2341 41.1794 0.264115 0.964491 1 0.5 0 1
84 1 76.4199 45.3299 0 -2.8461 45.3299 0 -672.732 398.093 -66.1747 -159.418 -0.975107 0.221733 1 0.5 0 1
85 1 19.9116 19.2454 0 19.9116 19.2454 0 -628.886 129.435 8.27897 132.226 -0.978937 -0.204164 1 0.5 0 1
86 1 11.0154 40.6293 0 11.0154 40.6293 0 -138.565 -9.13279 -141.568 -205.829 -0.993689 0.112169 1 0.5 0 1
87 1 11.5455 42.5077 0 11.5455 42.5077 0 338.845 -386.474 -113.982 -39.1513 -1 -0.000653296 1 0.5 0 1
88 1 17.3283 63.2055 0 17.3283 -16.0605 0 -612.351 -306.168 -0.177422 29.8056 -0.589945 0.807443 1 0.5 0 1
89 1 22.7719 54.8527 0 22.7719 -24.4133 0 -739.84 491.037 45.5798 -20.3342 -0.999112 0.0421359 1 0.5 0 1
90 1 4.35545 38.6293 0 4.35545 38.6293 0 8.95783 501.126 -213.188 -101.752 -0.912631 0.408784 1 0.5 0 1
91 1 16.2708 59.1881 0 16.2708 -20.0779 0 -433.124 -335.147 145.573 57.4352 -0.408222 -0.912883 1 0.5 0 1
92 1 3.46237 55.3469 0 3.46237 55.3469 0 -728.236 226.638 -45.8628 -301.279 0.999912 0.0132899 1 0.5 0 1
93 1 1.7531 45.9267 0 1.7531 45.9267 0 582.717 27.3728 146.109 -16.0161 -0.508675 0.860958 1 0.5 0 1
94 1 70.067 36.8635 0 70.067 36.8635 0 418.582 -838.331 -250.528 51.0544 0.4328 -0.90149 1 0.5 0 1
95 1 66.5069 48.9898 0 66.5069 48.9898 0 184.346 -266.896 -171.589 267.207 -0.90527 0.424836 1 0.5 0 1
96 1 53.2325 42.1165 0 53.2325 42.1165 0 -261.357 -647.501 -105.215 -115.306 -0.367206 -0.93014 1 0.5 0 1
97 1 54.0997 10.1212 0 54.0997 -69.1448 0 -227.243 432.901 83.809 -54.5532 0.83809 -0.545532 1 0.5 0 1
98 1 20.1374 49.8408 0 20.1374 49.8408 0 387.72 -814.147 102.223 129.235 -0.996567 0.0827878 1 0.5 0 1
99 1 44.7519 39.1427 0 44.7519 -40.1233 0 -34.9743 549.826 -71.3226 -108.82 0.4767 0.879066 1 0.5 0 1
100 1 72.5357 44.0153 0 72.5357 44.0153 0 467.508 -131.129 175.597 -50.7844 0.989345 -0.145589 1 0.5 0 1
101 1 48.8926 47.1014 0 48.8926 -32.1646 0 986.826 -24.2471 55.4284 51.6371 -0.139111 0.990277 1 0.5 0 1
102 1 78.5487 43.3351 0 -0.717272 43.3351 0 -833.537 -725.016 79.5648 -88.7557 -0.999219 -0.0395254 1 0.5 0 1
103 1 40.2899 64.914 0 -118.242 144.18 0 -173.5 129.322 -87.6777 -48.0897 -0.876777 -0.480897 1 0.5 0 1
104 1 52.6978 43.7318 0 52.6978 122.998 0 -29.9546 573.455 73.4239 -49.5939 0.81077 0.585365 1 0.5 0 1
105 1 15.3179 26.4065 0 15.3179 26.4065 0 -327.524 229.291 61.7601 1.56959 -0.113805 0.993503 1 0.5 0 1
106 1 38.0209 51.5692 0 38.0209 -27.6968 0 280.987 -34.4647 -15.8413 -66.6697 0.515942 -0.856624 1 0.5 0 1
107 1 61.2032 37.4682 0 61.2032 37.4682 0 -37.7938 -108.324 135.017 161.303 0.760586 -0.649237 1 0.5 0 1
108 1 78.8541 37.0601 0 -0.4119 116.326 0 -38.3226 437.705 215.596 -22.0571 0.0909261 -0.995858 1 0.5 0 1
109 1 11.341 24.5889 0 -67.925 103.855 0 -449.779 -21.9717 0.0883393 -167.209 0.521506 0.853248 1 0.5 0 1
110 1 50.0847 30.8898 0 50.0847 30.8898 0 305.651 649.285 -169.37 -55.8449 -0.819084 0.573673 1 0.5 0 1
111 1 74.0872 15.5594 0 74.0872 94.8254 0 -567.795 -584.992 56.9458 -2.52246 0.522556 0.852605 1 0.5 0 1
112 1 10.9612 49.5704 0 10.9612 49.5704 0 -106.426 380.494 208.751 97.4554 0.774576 0.63248 1 0.5 0 1
113 1 12.6393 27.3428 0 -66.6267 106.609 0 781.814 192.472 -3.58698 -65.113 0.182225 0.983257 1 0.5 0 1
114 1 53.4289 54.7079 0 53.4289 54.7079 0 -303.187 28.7072 63.4476 32.8737 0.902211 0.431296 1 0.5 0 1
115 1 39.4219 44.697 0 39.4219 -34.569 0 510.029 -423.791 -9.59476 52.7258 0.591312 -0.806443 1 0.5 0 1
116 1 61.3046 73.6112 0 61.3046 -84.9208 0 224.43 884.559 -73.0912 -27.0423 -0.15833 -0.987386 1 0.5 0 1
117 1 63.9927 67.6396 0 63.9927 -11.6264 0 413.001 -189.62 -163.58 -66.1243 0.839243 -0.543756 1 0.5 0 1
118 1 53.9755 41.4751 0 53.9755 41.4751 0 490.916 387.038 115.498 -53.7845 0.161136 -0.986932 1 0.5 0 1
119 1 6.30252 1.09621 0 164.835 1.09621 0 -395.049 -32.6892 96.2245 -27.2183 0.962245 -0.272183 1 0.5 0 1
120 1 45.3686 51.3686 0 124.635 -27.8974 0 552.639 714.753 -58.1682 -87.8406 -0.816669 -0.577107 1 0.5 0 1
121 1 42.9431 25.0461 0 -115.589 25.0461 0 767.057 -671.278 3.7452 23.9122 0.877461 -0.479648 1 0.5 0 1
122 1 21.3391 43.1113 0 21.3391 122.377 0 -98.2164 -183.67 11.3064 40.2799 -0.014262 0.999898 1 0.5 0 1
123 1 74.093 31.8996 0 -5.17305 31.8996 0 -569.343 232.102 251.838 6.41756 -0.88322 0.46896 1 0.5 0 1
124 1 20.6482 61.1242 0 -58.6178 -18.1418 0 736.91 -503.988 1.50854 -38.7285 -0.0492298 -0.998787 1 0.5 0 1
125 1 65.5749 29.1934 0 65.5749 29.1934 0 68.0298 -252.999 -306.873 38.2455 -0.96885 -0.247649 1 0.5 0 1
126 1 8.94656 35.5657 0 88.2126 114.832 0 -615.823 766.473 46.2405 -120.199 0.994379 0.105876 1 0.5 0 1
127 1 57.0296 30.7828 0 57.0296 110.049 0 -622.92 499.347 84.8561 190.506 -0.619007 0.785385 1 0.5 0 1
128 1 2.2745 26.2027 0 -76.9915 26.2027 0 771.715 718.931 -251.533 -123.143 -0.99956 -0.0296491 1 0.5 0 1
129 1 67.6175 57.2101 0 67.6175 -22.0559 0 212.617 406.138 103.32 -2.58905 -0.996772 0.0802834 1 0.5 0 1
130 1 73.8227 56.688 0 73.8227 -22.578 0 557.434 352.42 -22.9955 86.8981 -0.864226 -0.503104 1 0.5 0 1
131 1 1.95722 72.3008 0 1.95722 72.3008 0 -535.364 -32.4815 -65.4261 -43.7743 0.191982 -0.981398 1 0.5 0 1
132 1 59.1494 32.4247 0 -20.1166 111.691 0 105.522 340.246 -80.2372 9.09817 0.9989 -0.0468872 1 0.5 0 1
133 1 18.1341 49.5792 0 18.1341 128.845 0 299.194 -322.202 -214.399 70.6677 -0.998978 -0.0451905 1 0.5 0 1
134 1 12.2526 38.2202 0 12.2526 38.2202 0 -520.311 329.767 145.149 -335.412 -0.46406 -0.885804 1 0.5 0 1
135 1 16.0653 54.5522 0 16.0653 133.818 0 450.088 -270.582 71.7322 18.2244 0.28729 0.957844 1 0.5 0 1
136 1 27.1763 60.7083 0 106.442 139.974 0 627.491 -235.959 -24.0775 97.0581 -0.240775 0.970581 1 0.5 0 1
137 1 37.4732 50.4994 0 116.739 50.4994 0 -176.723 -947.024 5.61493 -47.5774 0.10142 -0.994844 1 0.5 0 1
138 1 47.3278 52.0679 0 -31.9382 -27.1981 0 -126.222 339.654 63.3923 -140.865 0.142877 0.98974 1 0.5 0 1
139 1 43.5625 42.5228 0 43.5625 -36.7432 0 566.65 -42.7956 -175.422 -41.7365 0.825968 -0.563717 1 0.5 0 1
140 1 2.77638 13.6815 0 2.77638 13.6815 0 27.9429 -412.947 -15.466 -22.2172 -0.577556 0.816351 1 0.5 0 1
141 1 10.4352 57.4494 0 10.4352 57.4494 0 349.86 -70.9388 -220.246 -81.6275 0.995343 0.0964002 1 0.5 0 1
142 1 16.5105 29.7809 0 -62.7555 109.047 0 165.581 105.212 17.3006 23.3543 0.104499 0.994525 1 0.5 0 1
143 1 10.8786 36.0596 0 10.8786 115.326 0 -236.11 473.01 179.017 4.57511 0.538091 0.842887 1 0.5 0 1
144 1 20.3339 36.5337 0 20.3339 36.5337 0 828.249 401.8 97.4472 -115.023 -0.997607 0.0691411 1 0.5 0 1
145 1 11.7166 67.2079 0 90.9826 67.2079 0 -165.779 -313.233 4.22553 -44.0358 0.396217 -0.918157 1 0.5 0 1
146 1 60.0796 62.8631 0 60.0796 -16.4029 0 -33.4037 386.224 -139.981 84.9253 0.302451 -0.953165 1 0.5 0 1
147 1 0.640822 68.9191 0 79.9068 -10.3469 0 409.61 -523.618 54.5623 75.0243 -0.481444 0.876477 1 0.5 0 1
148 1 50.7403 58.5399 0 130.006 58.5399 0 559.751 504.92 -26.9001 -25.6222 -0.84961 0.527412 1 0.5 0 1
149 1 71.4842 32.0082 0 71.4842 111.274 0 -417.079 -238.428 173.66 -4.73296 -0.462317 0.886715 1 0.5 0 1
150 1 66.4037 36.5918 0 -12.8623 36.5918 0 -672.802 222.405 174.2 -118.859 0.873804 0.486278 1 0.5 0 1
151 1 3.98184 57.2255 0 83.2478 -22.0405 0 -201.212 -268.563 47.8056 115.468 -0.561225 -0.827663 1 0.5 0 1
152 1 63.4535 65.6844 0 63.4535 65.6844 0 95.1252 -659.189 -67.9203 -38.2234 -0.0518737 -0.998654 1 0.5 0 1
153 1 76.5953 60.2576 0 76.5953 60.2576 0 -455.752 403.071 143.616 -82.752 0.98247 -0.18642 1 0.5 0 1
154 1 2.82926 49.8382 0 2.82926 49.8382 0 437.198 404.096 1.54841 167.773 -0.152031 0.988376 1 0.5 0 1
155 1 70.8563 67.3853 0 -87.6757 -11.8807 0 93.4263 -429.944 -378.145 -40.3752 -0.123798 0.992307 1 0.5 0 1
156 1 73.7306 48.771 0 73.7306 48.771 0 -708.044 355.594 33.2973 -123.112 -0.42064 -0.907228 1 0.5 0 1
157 1 5.14514 30.6296 0 5.14514 30.6296 0 1042.65 277.577 195.378 -139.582 0.52009 -0.854111 1 0.5 0 1
158 1 67.0502 39.4602 0 -12.2158 39.4602 0 -367.962 249.656 5.6411 -91.507 0.760856 -0.648921 1 0.5 0 1
159 1 1.7455 11.4386 0 1.7455 90.7046 0 -303.083 591.249 42.3668 41.0057 -0.598174 0.801366 1 0.5 0 1
160 1 50.3218 17.1223 0 50.3218 17.1223 0 -514.425 -3.07149 -10.1583 -133.63 0.688315 0.725412 1 0.5 0 1
161 1 36.4141 22.9972 0 36.4141 -56.2688 0 -161.573 -87.0781 -64.8432 -80.2991 -0.717214 -0.696853 1 0.5 0 1
162 1 6.35046 52.6492 0 6.35046 52.6492 0 -54.6034 -67.4534 -13.5159 118.993 -0.592053 -0.805899 1 0.5 0 1
163 1 63.1174 49.6569 0 63.1174 49.6569 0 1153 -368.554 -262.93 126.283 -0.175778 0.98443 1 0.5 0 1
164 1 57.6688 64.004 0 57.6688 -15.262 0 244.598 -642.138 -65.9398 25.6956 0.998435 -0.0559319 1 0.5 0 1
165 1 38.0655 58.0799 0 38.0655 58.0799 0 -179.757 -50.645 70.1557 93.0904 0.114166 0.993462 1 0.5 0 1
166 1 10.4613 44.9639 0 10.4613 44.9639 0 -14.9653 -21.2561 44.4206 15.7785 -0.848931 0.528504 1 0.5 0 1
167 1 64.8406 29.846 0 64.8406 29.846 0 26.3996 -621.096 89.6325 -23.9575 0.196261 -0.980552 1 0.5 0 1
168 1 12.6889 67.553 0 -66.5771 67.553 0 -561.245 -340.219 60.0513 38.3221 -0.549755 -0.835326 1 0.5 0 1
169 1 20.7194 58.3711 0 -58.5466 137.637 0 -36.0678 -32.636 86.0721 134.717 -0.999608 0.027983 1 0.5 0 1
170 1 17.0864 54.7898 0 96.3524 134.056 0 -243.103 -648.544 -10.1197 103.579 0.82567 0.564154 1 0.5 0 1
171 1 60.5903 68.4505 0 139.856 -10.8155 0 209.244 124.892 37.3645 -22.0046 0.991866 0.127284 1 0.5 0 1
172 1 8.67539 57.8624 0 8.67539 -21.4036 0 -631.031 99.7026 63.2084 43.0595 0.809283 -0.587419 1 0.5 0 1
173 1 53.1918 18.2645 0 53.1918 -61.0015 0 -618.256 202.612 54.2592 -12.1052 0.360634 0.932707 1 0.5 0 1
174 1 9.82223 51.9217 0 9.82223 51.9217 0 27.2516 -36.2364 -11.5005 -31.7296 -0.98628 0.165082 1 0.5 0 1
175 1 53.7073 63.1265 0 -25.5587 -16.1395 0 434.993 -690.265 -1.92003 -85.6884 0.966251 0.257603 1 0.5 0 1
176 1 11.2901 50.5328 0 11.2901 50.5328 0 -362.836 604.859 -61.1215 85.7503 0.947078 0.321005 1 0.5 0 1
177 1 3.4542 70.1095 0 3.4542 70.1095 0 -197.379 122.314 14.1914 10.2503 -0.99978 0.0209714 1 0.5 0 1
178 1 56.708 28.8231 0 -22.558 108.089 0 275.239 257.24 63.7748 -64.1559 -0.988518 0.151101 1 0.5 0 1
179 1 4.46713 55.6375 0 4.46713 -23.6285 0 -52.1877 -270.367 5.23149 85.2662 0.993112 -0.117171 1 0.5 0 1
180 1 73.7906 41.6996 0 73.7906 41.6996 0 187.248 -109.447 150.258 32.7171 -0.753516 -0.65743 1 0.5 0 1
181 1 69.1225 12.6189 0 69.1225 12.6189 0 -557.818 146.458 -30.5391 -20.6973 0.882093 -0.471076 1 0.5 0 1
182 1 9.64232 69.4437 0 -69.6237 69.4437 0 -227.126 -508.141 -54.7422 81.0364 -0.624879 -0.780722 1 0.5 0 1
183 1 58.4633 57.1367 0 58.4633 -22.1293 0 462.946 345.9 -30.8891 -82.2525 -0.861501 -0.507756 1 0.5 0 1
184 1 63.223 42.6269 0 63.223 42.6269 0 -527.95 491.76 -13.6001 -226.951 -0.123583 -0.992334 1 0.5 0 1
185 1 52.9071 17.0698 0 -26.3589 17.0698 0 471.573 -725.63 -13.6079 16.5925 -0.507265 0.86179 1 0.5 0 1
186 1 17.7861 31.1659 0 -61.4799 110.432 0 -52.2831 -31.7876 -87.7587 17.5233 -0.12503 0.992153 1 0.5 0 1
187 1 55.124 34.695 0 -24.142 113.961 0 -292.374 -134.092 -23.4083 -58.0158 0.175885 0.984411 1 0.5 0 1
188 1 65.1461 15.6855 0 144.412 94.9515 0 660.031 -323.011 -126.794 135.36 0.140094 0.990138 1 0.5 0 1
189 1 63.2872 72.1142 0 -15.9788 72.1142 0 138.927 -275.235 -93.414 -59.8877 0.258632 -0.965976 1 0.5 0 1
190 1 21.4595 53.7694 0 -57.8065 53.7694 0 -194.786 676.128 -26.9208 8.71385 -0.10674 0.994287 1 0.5 0 1
191 1 69.3942 10.2366 0 148.66 10.2366 0 -125.047 344.04 -30.1045 30.2876 0.425226 -0.905087 1 0.5 0 1
192 1 58.5428 37.567 0 58.5428 37.567 0 -141.689 -79.2413 -315.131 9.06217 0.955271 0.295731 1 0.5 0 1
193 1 76.6136 14.5728 0 -2.65237 93.8388 0 12.4351 155.15 -62.403 69.8991 -0.727761 0.685831 1 0.5 0 1
194 1 16.1156 28.3331 0 16.1156 -50.9329 0 -35.0916 158.587 -12.8457 72.2746 -0.868056 0.496467 1 0.5 0 1
195 1 53.4708 30.3581 0 53.4708 30.3581 0 -195.953 -652.46 -225.487 -129.616 -0.817133 0.576449 1 0.5 0 1
196 1 58.421 41.104 0 58.421 41.104 0 412.748 550.944 -71.2898 -102.343 -0.0440741 -0.999028 1 0.5 0 1
197 1 71.3046 61.073 0 -7.9614 61.073 0 210.833 -407.627 -89.1297 106.137 0.997864 -0.0653259 1 0.5 0 1
198 1 73.7592 45.293 0 73.7592 45.293 0 28.2068 111.107 -143.126 -25.1597 -0.963404 0.268052 1 0.5 0 1
199 1 67.8449 68.8286 0 -11.4211 -10.4374 0 -316.458 149.857 66.5926 -118.502 0.147595 -0.989048 1 0.5 0 1
200 1 2.33696 17.4602 0 81.603 96.7262 0 -149.467 398.517 119.597 -53.6301 -0.522063 0.852907 1 0.5 0 1
201 1 66.0376 8.22917 0 -13.2284 87.4952 0 -272.761 -307.942 -78.6874 61.7113 -0.786874 0.617113 1 0.5 0 1
202 1 56.2764 59.139 0 -22.9896 -20.127 0 99.7603 -404.254 -45.2714 282.23 0.479821 -0.877366 1 0.5 0 1
203 1 20.9217 38.9047 0 -58.3443 118.171 0 8.65748 99.8291 15.7497 20.3587 -0.749001 0.662568 1 0.5 0 1
204 1 64.6186 63.3442 0 64.6186 -15.9218 0 -866.22 1215.61 189.599 -148.449 -0.555913 -0.83124 1 0.5 0 1
205 1 50.5931 19.1435 0 50.5931 98.4095 0 65.7786 516.837 -122.549 90.2957 0.915513 0.402288 1 0.5 0 1
206 1 3.5112 58.9035 0 3.5112 -20.3625 0 819.08 -502.305 -80.1369 163.257 -0.969904 0.243487 1 0.5 0 1
207 1 59.3849 63.5747 0 59.3849 63.5747 0 -247.597 218.669 -99.928 -148.713 0.990435 -0.137977 1 0.5 0 1
208 1 9.15095 32.9423 0 9.15095 32.9423 0 109.609 -1079.17 -65.1984 -6.80737 0.00749317 0.999972 1 0.5 0 1
209 1 52.9176 27.4138 0 52.9176 106.68 0 127.519 105.497 -53.4249 -147.798 0.982518 -0.186168 1 0.5 0 1
210 1 66.0857 62.0455 0 -13.1803 62.0455 0 848.088 399.258 37.8134 -0.208299 -0.911889 0.410436 1 0.5 0 1
211 1 60.5753 42.659 0 60.5753 42.659 0 -491.085 28.1471 76.1907 -0.688995 0.989841 0.142177 1 0.5 0 1
212 1 22.0059 40.3793 0 180.538 40.3793 0 57.7143 -657.236 77.3715 -21.9274 -0.444693 0.895683 1 0.5 0 1
213 1 69.5494 64.898 0 69.5494 64.898 0 -535.397 976.509 -111.465 225.225 -0.21869 0.975794 1 0.5 0 1
214 1 22.1423 59.6525 0 22.1423 59.6525 0 -362.269 89.2567 -5.25124 -6.01672 0.0125179 -0.999922 1 0.5 0 1
215 1 54.8579 60.5792 0 54.8579 -18.6868 0 789.579 9.26428 139.242 95.8487 0.996053 -0.0887603 1 0.5 0 1
216 1 14.942 47.8479 0 14.942 127.114 0 161.156 -598.546 67.8328 -58.8727 -0.866634 0.498945 1 0.5 0 1
217 1 74.0805 9.80355 0 153.347 89.0696 0 -85.6433 -102.956 -6.06743 -57.951 0.810388 0.585893 1 0.5 0 1
218 1 45.6303 48.7879 0 45.6303 48.7879 0 117.012 738.874 16.8501 7.42049 -0.81849 -0.57452 1 0.5 0 1
219 1 52.871 44.6915 0 52.871 44.6915 0 37.6158 32.5407 336.452 30.8329 -0.852998 -0.521914 1 0.5 0 1
220 1 63.002 67.3665 0 63.002 -91.1655 0 688.1 722.495 -35.0026 33.4879 0.372426 0.928062 1 0.5 0 1
221 1 49.1089 22.3738 0 -30.1571 180.906 0 -74.3092 440.443 48.2465 7.90799 0.59605 -0.802948 1 0.5 0 1
222 1 42.0184 32.1831 0 42.0184 32.1831 0 -336.866 -291.362 -25.346 -32.089 0.717797 -0.696252 1 0.5 0 1
223 1 71.987 37.4706 0 -7.27904 37.4706 0 -17.6548 -117.127 -139.726 49.3142 0.0655289 -0.997851 1 0.5 0 1
224 1 76.0988 61.7865 0 -3.16718 61.7865 0 333.499 -685.171 -103.312 218.236 0.278583 -0.960412 1 0.5 0 1
225 1 12.2947 26.3609 0 91.5607 -52.9051 0 -920.227 215.103 123.098 -27.9995 0.159886 -0.987136 1 0.5 0 1
226 1 36.6378 75.8024 0 -42.6282 -3.46357 0 -973.987 -75.2381 -91.75 -39.7735 -0.9175 -0.397735 1 0.5 0 1
227 1 1.54073 37.645 0 80.8067 37.645 0 -805.584 -719.701 -137.718 226.955 -0.18335 -0.983048 1 0.5 0 1
228 1 14.0561 65.0451 0 -65.2099 -14.2209 0 -860.628 -229.329 10.9426 -6.96487 0.231603 -0.97281 1 0.5 0 1
229 1 51.0757 40.4884 0 51.0757 40.4884 0 472.181 -480.442 -8.41883 57.9289 -0.623405 -0.781899 1 0.5 0 1
230 1 51.624 38.9201 0 51.624 118.186 0 216.128 427.144 11.3214 -56.1279 -0.592594 0.805501 1 0.5 0 1
231 1 4.33244 23.8501 0 4.33244 103.116 0 -591.336 -826.025 149.413 145.039 -0.251307 0.967908 1 0.5 0 1
232 1 47.6233 24.6875 0 47.6233 -54.5785 0 -171.027 45.5833 -0.953105 -53.1494 0.66201 0.749495 1 0.5 0 1
233 1 7.18212 45.9048 0 7.18212 45.9048 0 -458.403 268.6 -11.2459 -50.2787 0.374504 0.927225 1 0.5 0 1
234 1 63.0784 71.0597 0 63.0784 -8.20628 0 1434.26 25.8049 -39.1625 133.805 0.995608 -0.0936176 1 0.5 0 1
235 1 23.8362 55.1439 0 23.8362 134.41 0 -594.491 -334.918 -45.7072 9.95464 -0.928923 0.370272 1 0.5 0 1
236 1 55.2333 65.3977 0 134.499 -13.8683 0 130.713 -8.89026 -44.226 9.31676 0.883229 -0.468943 1 0.5 0 1
237 1 70.3936 72.3669 0 70.3936 -6.89914 0 38.4689 -603.799 -95.4371 119.287 -0.142357 -0.989815 1 0.5 0 1
238 1 68.8729 21.9813 0 68.8729 101.247 0 -802.558 294.321 -57.2136 -153.293 0.668461 0.743748 1 0.5 0 1
239 1 3.66905 42.9363 0 82.935 42.9363 0 89.1372 -627.822 -52.1333 142.545 0.522769 -0.852474 1 0.5 0 1
240 1 71.8689 18.4378 0 71.8689 18.4378 0 973.441 -50.2957 -18.9657 -63.5224 0.419272 -0.907861 1 0.5 0 1
241 1 47.6633 36.4066 0 47.6633 36.4066 0 566.524 -292.568 92.1402 -72.8814 -0.118123 -0.992999 1 0.5 0 1
242 1 4.3374 62.862 0 83.6034 -16.404 0 -945.695 67.1363 52.9549 56.0491 0.709581 0.704624 1 0.5 0 1
243 1 61.9576 72.7936 0 -96.5744 72.7936 0 130.799 -63.0034 92.0744 -24.1044 -0.882167 -0.470937 1 0.5 0 1
244 1 60.6032 25.5132 0 60.6032 104.779 0 141.494 -227.341 -63.1902 30.9203 0.99755 -0.0699558 1 0.5 0 1
245 1 56.174 51.0883 0 56.174 51.0883 0 -97.2266 259.446 -40.1295 -9.21196 -0.0430962 -0.999071 1 0.5 0 1
246 1 48.6244 41.515 0 48.6244 41.515 0 -47.4712 -297.5 -113.803 -63.4015 -0.350002 -0.936749 1 0.5 0 1
247 1 66.9925 54.3478 0 66.9925 -24.9182 0 40.7706 583.452 97.6345 3.69514 0.731283 -0.682074 1 0.5 0 1
248 1 29.2275 15.7852 0 -50.0385 15.7852 0 -446.29 410.844 50.6863 -86.2027 0.506863 -0.862027 1 0.5 0 1
249 1 36.5955 44.5209 0 115.861 -34.7451 0 262.215 -59.4983 60.7074 -21.7727 0.809017 -0.587785 1 0.5 0 1
250 1 54.8118 68.0752 0 213.344 68.0752 0 748.572 -129.234 -66.2931 -42.4752 0.856587 -0.516002 1 0.5 0 1
251 1 63.479 16.0089 0 63.479 174.541 0 59.0324 -1310.43 -148.082 85.2892 0.721907 0.69199 1 0.5 0 1
252 1 60.8147 21.8401 0 60.8147 101.106 0 198.453 -181.341 -203.445 -25.9088 -0.978154 -0.207881 1 0.5 0 1
253 1 17.1452 49.409 0 17.1452 49.409 0 52.9868 13.1793 46.107 -75.5371 -0.995503 -0.0947348 1 0.5 0 1
254 1 47.1054 33.4796 0 47.1054 112.746 0 -1597.77 -433.736 86.643 240.917 0.0210345 -0.999779 1 0.5 0 1
255 1 1.76137 35.0626 0 81.0274 114.329 0 -608.762 -518.274 -132.539 64.6339 0.567172 0.823599 1 0.5 0 1
256 1 68.5886 42.6689 0 -10.6774 42.6689 0 -813.42 452.59 -37.7462 -83.0718 -0.997226 0.0744272 1 0.5 0 1
257 1 7.89375 38.8676 0 7.89375 118.134 0 -460.233 -198.083 -21.785 19.8477 -0.980297 -0.197529 1 0.5 0 1
258 1 7.01614 27.493 0 7.01614 -51.773 0 309.409 63.8041 41.9479 -31.656 0.483282 0.875464 1 0.5 0 1
259 1 36.869 46.6573 0 36.869 46.6573 0 299.885 98.4147 6.45326 -78.743 0.247318 -0.968934 1 0.5 0 1
260 1 70.369 70.3413 0 149.635 -8.92469 0 234.02 502.115 -19.3652 48.7917 0.974565 0.224104 1 0.5 0 1
261 1 10.4541 22.6782 0 10.4541 22.6782 0 120.853 -99.2858 -66.4242 16.8547 -0.814727 0.579844 1 0.5 0 1
262 1 56.5156 60.1322 0 135.782 -19.1338 0 342.016 -79.2765 -110.434 -7.10019 -0.466841 -0.884341 1 0.5 0 1
263 1 77.8075 73.7439 0 -80.7245 -84.7881 0 -135.14 307.496 36.4496 2.15247 0.177155 -0.984183 1 0.5 0 1
264 1 19.3482 41.1169 0 177.88 -38.1491 0 -974.46 -496.728 228.525 -62.2805 -0.955126 0.2962 1 0.5 0 1
265 1 52.3716 28.9967 0 52.3716 108.263 0 406.041 -201.333 -162.09 -4.94636 0.283983 -0.958829 1 0.5 0 1
266 1 55.6396 52.7325 0 55.6396 52.7325 0 99.6759 -769.552 -9.53936 -153.94 0.550731 0.834683 1 0.5 0 1
267 1 72.7863 63.2869 0 -6.47974 -15.9791 0 -38.0732 226.161 -34.8423 -179.647 0.160278 -0.987072 1 0.5 0 1
268 1 66.6119 60.4348 0 66.6119 60.4348 0 -291.282 13.8017 123.616 -150.376 0.159165 -0.987252 1 0.5 0 1
269 1 17.3107 55.7868 0 96.5767 55.7868 0 696.749 -205.528 -3.83817 -57.3927 -0.384147 0.923272 1 0.5 0 1
270 1 38.2859 4.42055 0 38.2859 4.42055 0 690.861 125.234 -96.6535 25.6533 -0.966535 0.256533 1 0.5 0 1
271 1 71.5064 10.7887 0 71.5064 10.7887 0 445.831 -228.356 221.204 -152.565 0.0275128 -0.999621 1 0.5 0 1
272 1 50.6584 38.5186 0 50.6584 38.5186 0 784.247 220.043 236.029 165.081 0.690353 -0.723473 1 0.5 0 1
273 1 59.6325 50.3652 0 59.6325 50.3652 0 13.746 202.186 -124.727 -163.692 -0.726054 0.687638 1 0.5 0 1
274 1 0.631029 9.7862 0 79.897 9.7862 0 -125.889 -500.35 20.3365 -0.28894 0.896987 0.442058 1 0.5 0 1
275 1 7.97152 63.3542 0 87.2375 -15.9118 0 -712.431 -685.395 242.509 13.4225 -0.395379 0.918518 1 0.5 0 1
276 1 57.5183 45.3375 0 57.5183 45.3375 0 472.181 128.012 63.1195 -120.958 -0.0938139 0.99559 1 0.5 0 1
277 1 5.5298 4.10767 0 5.5298 4.10767 0 709.68 39.1838 94.2346 -33.4641 0.942346 -0.334641 1 0.5 0 1
278 1 10.1187 33.1495 0 -69.1473 112.416 0 -290.576 -683.664 25.7809 254.163 0.232801 -0.972524 1 0.5 0 1
279 1 20.5835 44.68 0 99.8495 -113.852 0 -723.465 -694.059 -59.209 46.2871 -0.992199 0.124668 1 0.5 0 1
280 1 1.49429 75.0448 0 -77.7717 -83.4872 0 -524.935 -330.165 -154.702 104.346 -0.157986 -0.987441 1 0.5 0 1
281 1 68.3972 56.5728 0 68.3972 56.5728 0 173.788 455.131 95.7289 103.288 -0.992078 0.125622 1 0.5 0 1
282 1 47.1463 47.4445 0 47.1463 -31.8215 0 -13.4173 -1113.54 2.65367 47.5604 -0.175072 -0.984556 1 0.5 0 1
283 1 68.8795 32.088 0 -10.3865 111.354 0 -546.028 497.03 293.246 -191.304 -0.834767 -0.550604 1 0.5 0 1
284 1 5.87922 29.9355 0 5.87922 109.201 0 -699.796 -378.199 -34.5338 2.04149 0.0291971 0.999574 1 0.5 0 1
285 1 65.2039 35.2833 0 65.2039 35.2833 0 245.109 -1106.29 -118.454 118.246 0.808996 -0.587815 1 0.5 0 1