ITEM: TIMESTEP
440000
ITEM: NUMBER OF ATOMS
4000
ITEM: BOX BOUNDS pp pp pp
0.0000000000000000e+00 7.9266000000000005e+01
0.0000000000000000e+00 7.9266000000000005e+01
-5.0000000000000000e-01 5.0000000000000000e-01
ITEM: ATOMS id type x y z xu yu zu vx vy fx fy mux muy mu radius omegaz mass
1 1 6.38044 65.3894 0 85.6464 65.3894 0 -299.926 -105.812 -11.9138 -38.349 0.083781 -0.996484 1 0.5 0 1
2 1 61.1091 18.7773 0 61.1091 18.7773 0 -188.142 52.0767 -71.9743 -30.6031 -0.0749957 -0.997184 1 0.5 0 1
3 1 28.3861 31.8822 0 28.3861 -47.3838 0 -2.45363 154.664 99.9941 -1.08562 0.999941 -0.0108562 1 0.5 0 1
4 1 1.99922 16.6277 0 1.99922 16.6277 0 -370.781 239.436 104.816 59.0389 -0.850481 0.526006 1 0.5 0 1
5 1 0.781951 32.37 0 0.781951 32.37 0 -710.135 -146.772 -58.1626 -29.9862 -0.328202 0.944607 1 0.5 0 1
6 1 68.1826 30.3293 0 -11.0834 30.3293 0 65.9541 -70.6137 -75.5722 31.7743 0.373659 0.927566 1 0.5 0 1
7 1 67.1106 50.875 0 67.1106 50.875 0 606.444 -705.431 -221.31 80.5311 -0.332134 0.943232 1 0.5 0 1
8 1 16.1494 31.919 0 16.1494 -47.347 0 61.1866 54.0866 -77.9498 76.8678 -0.739901 -0.672715 1 0.5 0 1
9 1 66.7299 27.9768 0 66.7299 27.9768 0 561.723 -98.9331 -88.047 176.837 -0.464903 0.885362 1 0.5 0 1
10 1 20.6716 53.583 0 20.6716 53.583 0 -439.189 299.512 41.2696 -99.6774 -0.972868 -0.231363 1 0.5 0 1
11 1 66.2847 12.8122 0 -92.2473 12.8122 0 16.6278 619.599 44.7471 -55.4176 -0.362878 0.931837 1 0.5 0 1
12 1 77.9826 23.6268 0 77.9826 102.893 0 -121.397 279.617 162.084 -43.5905 -0.983885 -0.178804 1 0.5 0 1
13 1 77.8895 67.8245 0 77.8895 -11.4415 0 -280.08 -393.051 9.10422 203.342 -0.962319 0.271924 1 0.5 0 1
14 1 14.6117 40.8254 0 -143.92 40.8254 0 -701.292 483.761 -1.96941 -149.59 -0.871944 0.489606 1 0.5 0 1
15 1 9.7634 35.9831 0 9.7634 35.9831 0 -376.673 60.1677 244.752 -37.8019 -0.0678259 0.997697 1 0.5 0 1
16 1 15.7681 51.5038 0 -63.4979 -27.7622 0 -790.533 169.808 482.402 45.7159 -0.902678 -0.430316 1 0.5 0 1
17 1 41.097 41.4338 0 120.363 120.7 0 -412.503 -447.504 26.4244 2.78658 0.498852 -0.866687 1 0.5 0 1
18 1 72.5865 74.3817 0 -6.6795 -4.88425 0 -335.487 -433.523 100.179 14.2551 0.360957 -0.932582 1 0.5 0 1
19 1 3.6539 43.2692 0 3.6539 43.2692 0 359.411 72.499 -196.092 216.606 0.783146 0.621837 1 0.5 0 1
20 1 17.4725 58.5874 0 17.4725 58.5874 0 391.847 -614.528 78.9399 -52.1289 0.81801 -0.575204 1 0.5 0 1
21 1 1.75249 29.0886 0 1.75249 29.0886 0 -219.88 227.494 -12.3645 -229.304 -0.32651 0.945194 1 0.5 0 1
22 1 0.194415 22.3502 0 79.4604 22.3502 0 30.127 -319.921 258.893 -1.01498 -0.9499 -0.312555 1 0.5 0 1
23 1 40.3129 45.8394 0 119.579 45.8394 0 548.216 164.508 76.1584 231.077 0.818044 -0.575156 1 0.5 0 1
24 1 66.9954 57.9256 0 66.9954 -21.3404 0 247.718 1298.48 -189.172 -159.623 0.479954 -0.877294 1 0.5 0 1
25 1 46.8159 30.0648 0 -32.4501 -49.2012 0 252.325 -51.6684 0.177284 4.57306 0.0308487 -0.999524 1 0.5 0 1
26 1 52.1038 60.1872 0 52.1038 -98.3448 0 767.946 357.764 19.5543 65.2289 0.323277 0.946304 1 0.5 0 1
27 1 72.9281 19.8745 0 -6.3379 99.1405 0 51.4178 -534.821 -8.57753 155.446 -0.340562 -0.940222 1 0.5 0 1
28 1 11.471 69.4515 0 11.471 69.4515 0 83.4364 13.0402 -54.0644 2.42318 -0.999167 0.0408167 1 0.5 0 1
29 1 74.0666 39.5756 0 -5.19943 39.5756 0 -564.41 -477.347 57.7175 -59.4955 -0.956017 -0.293311 1 0.5 0 1
30 1 0.473416 10.3907 0 79.7394 89.6567 0 -118.279 -147.395 -94.5292 32.8516 0.228491 0.973546 1 0.5 0 1
31 1 72.6405 27.2034 0 -6.62555 27.2034 0 621.78 711.07 -42.9205 129.923 0.393814 0.91919 1 0.5 0 1
32 1 2.19987 17.6425 0 2.19987 17.6425 0 -431.113 -172.068 -105.043 -214.061 0.977468 0.211083 1 0.5 0 1
33 1 65.5535 59.2716 0 65.5535 -19.9944 0 185.949 25.3814 -132.545 62.3723 0.0269625 -0.999636 1 0.5 0 1
34 1 6.63287 47.8541 0 85.8989 47.8541 0 -194.456 760.161 76.9636 3.05468 0.348123 0.937449 1 0.5 0 1
35 1 43.5023 37.5783 0 -35.7637 37.5783 0 -662.03 -380.891 45.2924 -43.2099 0.0901301 0.99593 1 0.5 0 1
36 1 60.1423 59.5489 0 60.1423 -19.7171 0 -971.658 472.675 -57.7324 29.2847 -0.443478 0.896285 1 0.5 0 1
37 1 69.6726 43.6567 0 69.6726 43.6567 0 -202.723 -259.412 177.234 -72.2629 -0.139022 0.990289 1 0.5 0 1
38 1 0.842638 14.2095 0 159.375 93.4755 0 341.486 -698.989 60.8137 -51.6475 0.987451 0.157924 1 0.5 0 1
39 1 8.08528 24.4665 0 87.3513 -54.7995 0 365.964 424.439 -127.159 -170.589 0.447812 -0.894128 1 0.5 0 1
40 1 55.9319 18.8759 0 -23.3341 98.1419 0 33.6044 444.331 61.3528 -116.648 0.971336 0.237711 1 0.5 0 1
41 1 69.544 53.3447 0 69.544 53.3447 0 91.9518 380.381 -38.9165 14.0598 -0.194308 -0.980941 1 0.5 0 1
42 1 75.6432 60.6823 0 -3.62278 60.6823 0 151.86 876.196 -93.5471 -19.9693 0.814492 -0.580175 1 0.5 0 1
43 1 78.5699 16.3784 0 -79.9621 95.6444 0 199.771 -483.401 -159.14 177.952 -0.0903258 -0.995912 1 0.5 0 1
44 1 64.1699 20.6851 0 64.1699 99.9511 0 1128.88 -762.917 161.946 54.4003 0.629879 0.776693 1 0.5 0 1
45 1 18.2016 63.8646 0 18.2016 -94.6674 0 -803.713 286.966 55.5509 -18.1769 -0.098819 -0.995105 1 0.5 0 1
46 1 4.82846 44.5853 0 4.82846 44.5853 0 -197.581 -253.136 163.547 -82.8785 -0.53561 -0.844466 1 0.5 0 1
47 1 58.9203 61.8617 0 58.9203 -17.4043 0 1131.41 336.803 -80.4851 -48.2067 -0.948197 -0.317683 1 0.5 0 1
48 1 12.6113 47.2791 0 12.6113 47.2791 0 -40.7646 -39.483 -11.6966 5.53999 0.517957 -0.855406 1 0.5 0 1
49 1 40.1312 55.568 0 40.1312 55.568 0 -226.044 -176.152 -1.65936 4.65311 0.130747 -0.991416 1 0.5 0 1
50 1 55.0005 18.4676 0 -24.2655 18.4676 0 20.1434 -258.179 34.9561 40.5608 0.941929 0.335813 1 0.5 0 1
51 1 56.6588 73.27 0 -101.873 -5.99598 0 -201.288 50.9677 -88.1514 19.0821 -0.999848 0.0174207 1 0.5 0 1
52 1 2.03843 33.5817 0 81.3044 33.5817 0 -46.2058 67.0442 71.6505 34.536 0.780507 -0.625147 1 0.5 0 1
53 1 14.0451 56.6178 0 14.0451 135.884 0 863.795 -178.89 43.002 11.9307 -0.998176 -0.0603779 1 0.5 0 1
54 1 52.4644 30.7549 0 52.4644 30.7549 0 532.497 -252.465 -16.4139 201.794 -0.389437 0.921053 1 0.5 0 1
55 1 14.9584 43.0291 0 94.2244 122.295 0 -188.646 -812.045 26.9568 16.7674 -0.784573 -0.620037 1 0.5 0 1
56 1 42.4583 40.0278 0 42.4583 40.0278 0 -606.984 585.94 -83.2991 -20.0465 -0.326997 0.945025 1 0.5 0 1
57 1 11.2457 22.3032 0 11.2457 101.569 0 37.4098 -755.479 5.26647 -9.1345 -0.992565 -0.121713 1 0.5 0 1
58 1 66.0326 28.7094 0 -13.2334 28.7094 0 -89.9391 1333.39 -13.5576 -151.545 -0.652849 0.757488 1 0.5 0 1
59 1 51.8145 35.1107 0 51.8145 35.1107 0 68.0957 -271.37 -45.8195 45.3524 -0.171799 -0.985132 1 0.5 0 1
60 1 56.129 42.0215 0 56.129 42.0215 0 434.518 424.102 -24.8823 -166.473 -0.115622 -0.993293 1 0.5 0 1
61 1 58.6965 45.5012 0 58.6965 45.5012 0 530.884 288.576 59.335 -84.7543 -0.113917 -0.99349 1 0.5 0 1
62 1 56.1592 19.8925 0 135.425 19.8925 0 -460.938 -65.8918 70.307 -22.7153 0.624086 -0.781356 1 0.5 0 1
63 1 14.1123 63.063 0 -65.1537 -16.203 0 333.397 98.3208 -0.823231 26.5792 0.338095 0.941112 1 0.5 0 1
64 1 21.5065 35.6289 0 100.772 114.895 0 622.99 -8.37439 -99.298 11.828 -0.99298 0.11828 1 0.5 0 1
65 1 43.124 32.8084 0 201.656 112.074 0 386.6 237.031 -61.56 -39.2835 0.798037 0.602609 1 0.5 0 1
66 1 13.8637 45.691 0 93.1297 124.957 0 -146.375 552.379 -91.6798 -95.5742 0.061394 0.998114 1 0.5 0 1
67 1 53.9476 44.0714 0 53.9476 44.0714 0 92.8633 -964.988 -239.922 98.5652 -0.166771 -0.985996 1 0.5 0 1
68 1 13.6632 40.5558 0 13.6632 40.5558 0 365.165 -355.446 -77.8303 -66.8389 0.11396 -0.993485 1 0.5 0 1
69 1 53.0049 21.7131 0 53.0049 21.7131 0 -34.6853 -599.412 -179.531 -23.3584 0.997949 0.0640142 1 0.5 0 1
70 1 48.3425 38.6412 0 48.3425 117.907 0 -309.843 84.1493 141.394 5.55362 0.232468 -0.972604 1 0.5 0 1
71 1 56.4618 16.9102 0 135.728 16.9102 0 -61.684 1290.56 30.5077 -59.9053 0.127194 0.991878 1 0.5 0 1
72 1 6.49453 59.4676 0 6.49453 59.4676 0 563.579 1250.16 -13.8799 -61.1982 0.814763 -0.579794 1 0.5 0 1
73 1 3.4864 14.3274 0 3.4864 14.3274 0 461.555 446.609 21.4587 29.1393 -0.441048 -0.897484 1 0.5 0 1
74 1 56.6174 21.9443 0 56.6174 101.21 0 -3.43066 132.374 -66.7661 13.2343 0.471573 -0.881827 1 0.5 0 1
75 1 75.7879 39.198 0 -3.47815 39.198 0 -671.079 -316.376 104.665 -103.358 0.963147 -0.268974 1 0.5 0 1
76 1 17.9636 31.3622 0 -61.3024 31.3622 0 90.0453 -476.044 -35.9032 13.0633 -0.997278 0.0737377 1 0.5 0 1
77 1 77.3178 35.1499 0 -1.94823 35.1499 0 -200.286 402.554 -19.1853 -24.7184 0.998384 -0.0568252 1 0.5 0 1
78 1 60.9799 6.56845 0 60.9799 85.8345 0 483.358 220.35 -10.1272 -99.4859 -0.101272 -0.994859 1 0.5 0 1
79 1 44.8767 55.8465 0 -34.3893 55.8465 0 -107.702 -59.0282 -101.143 2.08919 0.9513 0.308266 1 0.5 0 1
80 1 77.9237 27.1775 0 -1.3423 -52.0885 0 -548.194 392.591 52.6303 -5.29794 -0.37124 -0.928537 1 0.5 0 1
81 1 47.5655 35.6807 0 126.831 35.6807 0 -845.464 92.4089 17.6125 12.4569 0.880319 0.474381 1 0.5 0 1
82 1 1.06539 39.6771 0 1.06539 39.6771 0 -63.5951 82.5365 237.556 -75.3347 0.660046 0.751225 1 0.5 0 1
83 1 42.1213 41.7214 0 121.387 120.987 0 -63.7615 -27.2831 -74.4991 86.398 -0.99827 0.0587953 1 0.5 0 1
84 1 77.1767 45.0515 0 -2.08928 45.0515 0 29.0493 491.081 -14.8074 -4.22576 -0.977733 -0.209853 1 0.5 0 1
85 1 64.1426 0.0714375 0 -15.1234 0.0714375 0 215.08 607.418 -99.7468 -7.11209 -0.997468 -0.0711209 1 0.5 0 1
86 1 10.263 41.5928 0 10.263 41.5928 0 808.037 -388.089 -37.3385 154.055 -0.999237 -0.0390659 1 0.5 0 1
87 1 8.97087 43.0717 0 8.97087 43.0717 0 682.212 -541.662 -306.633 109.076 0.0584962 -0.998288 1 0.5 0 1
88 1 17.7306 19.145 0 17.7306 19.145 0 -467.576 -1282.97 -11.3344 99.3556 -0.113344 0.993556 1 0.5 0 1
89 1 22.7753 50.2661 0 22.7753 -28.9999 0 241.218 44.0751 142.691 64.3138 -0.905399 -0.424563 1 0.5 0 1
90 1 4.31926 38.9029 0 4.31926 38.9029 0 83.5167 404.905 -30.9608 -143.917 -0.634275 0.773108 1 0.5 0 1
91 1 18.2209 57.6783 0 18.2209 -21.5877 0 -459.055 307.856 32.8356 16.3414 -0.201344 -0.979521 1 0.5 0 1
92 1 4.81334 57.2198 0 4.81334 57.2198 0 -69.3454 33.4448 -29.4133 -21.7357 0.776679 0.629896 1 0.5 0 1
93 1 2.27723 48.2709 0 2.27723 48.2709 0 500.861 116.754 -94.5251 140.374 -0.88888 0.458141 1 0.5 0 1
94 1 70.0173 37.3641 0 70.0173 37.3641 0 368.707 -325.085 -105.256 103.615 0.113727 -0.993512 1 0.5 0 1
95 1 66.869 49.9199 0 66.869 49.9199 0 -393.33 -898.052 137.49 -36.4675 0.383505 0.923539 1 0.5 0 1
96 1 53.7252 43.0996 0 53.7252 43.0996 0 206.367 148.215 -174.387 19.7433 -0.986533 -0.163562 1 0.5 0 1
97 1 57.6161 69.5549 0 57.6161 -88.9771 0 -322.268 391.497 119.323 -38.5896 0.466634 -0.884451 1 0.5 0 1
98 1 18.0794 50.2755 0 18.0794 50.2755 0 -273.771 -82.1516 145.352 70.0501 -0.655651 0.755064 1 0.5 0 1
99 1 45.3663 40.737 0 45.3663 -38.529 0 -782.95 272.543 84.8598 -73.1429 0.837351 0.546665 1 0.5 0 1
100 1 72.6213 44.4918 0 72.6213 44.4918 0 -472.541 -817.215 82.8943 124.754 0.538904 -0.842367 1 0.5 0 1
101 1 49.777 49.21 0 49.777 -30.056 0 526.089 326.885 -189.377 36.3385 0.924217 0.381868 1 0.5 0 1
102 1 78.6019 43.6811 0 -0.664127 43.6811 0 -541.286 -146.326 54.2611 61.7668 -0.360585 -0.932726 1 0.5 0 1
103 1 24.811 50.5481 0 -133.721 129.814 0 749.207 -161.104 59.1023 50.5792 -0.940629 -0.339437 1 0.5 0 1
104 1 53.1894 44.753 0 53.1894 124.019 0 -152.078 -59.711 -10.7679 -55.5952 0.93985 -0.341588 1 0.5 0 1
105 1 30.1352 40.113 0 30.1352 40.113 0 -476.638 136.004 106.364 43.4389 0.994162 0.107898 1 0.5 0 1
106 1 18.653 34.1178 0 18.653 -45.1482 0 345.558 156.991 9.13548 36.8682 -0.79906 0.601252 1 0.5 0 1
107 1 61.4129 38.0616 0 61.4129 38.0616 0 414.301 119.664 16.9891 181.395 0.863635 -0.504117 1 0.5 0 1
108 1 78.8541 37.3671 0 -0.411916 116.633 0 693.469 -729.025 -191.729 -43.5672 0.265172 -0.964201 1 0.5 0 1
109 1 35.4832 38.4385 0 -43.7828 117.704 0 581.92 48.5957 89.2432 45.1183 0.892432 0.451183 1 0.5 0 1
110 1 50.0639 31.8187 0 50.0639 31.8187 0 -550.242 202.775 173.056 164.591 0.507392 0.861715 1 0.5 0 1
111 1 73.7626 14.601 0 73.7626 93.867 0 589.22 186.767 57.3285 32.1035 -0.287176 0.957878 1 0.5 0 1
112 1 12.0861 50.8476 0 12.0861 50.8476 0 411.118 204.597 -62.391 -35.5005 0.544509 0.838755 1 0.5 0 1
113 1 13.0141 26.2437 0 -66.2519 105.51 0 372.287 -1274.16 -13.016 -188.095 -0.706107 -0.708105 1 0.5 0 1
114 1 53.9076 55.9442 0 53.9076 55.9442 0 -561.707 -528.077 -52.4661 -79.368 0.787064 -0.616871 1 0.5 0 1
115 1 41.2648 46.1966 0 41.2648 -33.0694 0 -230.144 350.097 -53.4849 -9.73653 0.993991 -0.109464 1 0.5 0 1
116 1 56.1431 71.3011 0 56.1431 -87.2309 0 473.302 654.766 -51.9557 -78.6151 -0.0397093 -0.999211 1 0.5 0 1
117 1 64.7977 68.3545 0 64.7977 -10.9115 0 -86.6564 -201.849 -101.928 -63.6468 0.850369 0.526187 1 0.5 0 1
118 1 54.436 42.4128 0 54.436 42.4128 0 -113.128 -321.506 360.94 -11.4659 0.658471 -0.752606 1 0.5 0 1
119 1 37.3589 57.1453 0 195.891 -22.1207 0 401.602 149.487 -25.2121 70.1469 0.888501 -0.458875 1 0.5 0 1
120 1 44.9937 52.2328 0 124.26 -27.0332 0 159.103 -644.224 -5.47552 -33.9883 -0.437892 -0.899028 1 0.5 0 1
121 1 58.5087 71.0461 0 -100.023 -8.21987 0 358.772 151.808 17.272 34.9695 0.246867 -0.969049 1 0.5 0 1
122 1 32.8414 40.3027 0 32.8414 119.569 0 571.046 -141.979 74.3854 -66.8342 0.743854 -0.668342 1 0.5 0 1
123 1 72.9121 31.9333 0 -6.3539 31.9333 0 -190.273 -605.786 -115.834 64.9878 0.136297 0.990668 1 0.5 0 1
124 1 26.0847 44.3271 0 -53.1813 -34.9389 0 -382.356 312.19 -2.33223 93.548 -0.15168 -0.98843 1 0.5 0 1
125 1 64.3753 29.1296 0 64.3753 29.1296 0 -12.2139 141.533 37.5069 260.113 -0.983749 0.179547 1 0.5 0 1
126 1 8.09461 36.4056 0 87.3606 115.672 0 61.159 304.451 17.8239 -9.85283 0.998128 -0.0611612 1 0.5 0 1
127 1 56.9647 31.3865 0 56.9647 110.652 0 32.4308 -28.9853 53.7661 -113.382 -0.128484 0.991712 1 0.5 0 1
128 1 1.10255 26.1802 0 -78.1635 26.1802 0 7.92554 -408.489 106.498 -46.8978 -0.980547 -0.196286 1 0.5 0 1
129 1 68.6536 57.5631 0 68.6536 -21.7029 0 414.223 670.083 38.8262 36.273 -0.552552 0.833478 1 0.5 0 1
130 1 74.7751 56.8132 0 74.7751 -22.4528 0 -60.7154 -351.677 32.7112 179.201 -0.880433 -0.47417 1 0.5 0 1
131 1 2.42376 72.5347 0 2.42376 72.5347 0 -222.329 -21.2196 -34.613 -20.4433 -0.110646 -0.99386 1 0.5 0 1
132 1 59.1733 32.9794 0 -20.0927 112.245 0 1035 538.86 -160.053 -201.368 0.99949 0.0319218 1 0.5 0 1
133 1 16.7015 51.771 0 16.7015 131.037 0 642.99 220.003 -156.964 30.5336 -0.466462 -0.884541 1 0.5 0 1
134 1 11.4729 39.1494 0 11.4729 39.1494 0 -780.826 306.472 -24.3198 15.674 -0.412717 -0.910859 1 0.5 0 1
135 1 22.0763 65.3197 0 22.0763 144.586 0 251.074 -850.926 -24.8508 96.863 -0.248508 0.96863 1 0.5 0 1
136 1 26.0668 25.0859 0 105.333 183.618 0 -170.465 485.621 -32.0028 94.7408 -0.320028 0.947408 1 0.5 0 1
137 1 39.177 44.5221 0 118.443 44.5221 0 -20.9498 -401.681 142.997 74.1668 0.98891 0.148515 1 0.5 0 1
138 1 48.1843 54.232 0 -31.0817 -25.034 0 182.897 -548.544 -142.597 190.971 -0.203589 0.979057 1 0.5 0 1
139 1 44.6805 44.2913 0 44.6805 -34.9747 0 321.502 810.225 86.2385 36.5981 -0.542242 -0.840222 1 0.5 0 1
140 1 3.30808 13.308 0 3.30808 13.308 0 -16.2053 -267.402 46.921 -9.86925 -0.89603 0.443994 1 0.5 0 1
141 1 11.9779 58.8003 0 11.9779 58.8003 0 -205.637 -290.335 -17.4281 130.552 0.731423 -0.681924 1 0.5 0 1
142 1 21.528 44.4458 0 -57.738 123.712 0 -422.712 439.826 71.5931 67.4062 -0.288609 0.957447 1 0.5 0 1
143 1 10.0254 36.9495 0 10.0254 116.215 0 442.688 -727.106 -74.4197 152.709 -0.51776 0.855526 1 0.5 0 1
144 1 25.1872 19.1096 0 25.1872 19.1096 0 311.837 -417.102 67.9564 -73.3616 0.679564 -0.733616 1 0.5 0 1
145 1 15.6839 65.3066 0 94.9499 65.3066 0 -125.464 285.37 -35.6591 -31.7089 -0.10219 -0.994765 1 0.5 0 1
146 1 61.2274 63.4002 0 61.2274 -15.8658 0 -17.5449 462.36 -40.8131 -73.9934 0.99197 0.126475 1 0.5 0 1
147 1 2.17358 68.4527 0 81.4396 -10.8133 0 112.274 234.011 135.325 -76.2935 -0.959567 -0.28148 1 0.5 0 1
148 1 51.3722 60.9424 0 130.638 60.9424 0 -184.434 -386.852 -3.01583 -121.092 -0.408031 0.912968 1 0.5 0 1
149 1 70.3239 32.0203 0 70.3239 111.286 0 -168.104 -206.551 -65.8514 382.798 -0.556474 0.830865 1 0.5 0 1
150 1 66.4553 37.0932 0 -12.8107 37.0932 0 -934.864 -1110.91 150.515 44.7701 0.999937 -0.0112076 1 0.5 0 1
151 1 5.35313 59.1717 0 84.6191 -20.0943 0 -43.5856 228.116 -0.550701 -217.401 0.125879 -0.992046 1 0.5 0 1
152 1 64.4461 66.3233 0 64.4461 66.3233 0 163.516 -378.182 -117.088 43.7118 0.284376 -0.958713 1 0.5 0 1
153 1 77.3834 60.3572 0 77.3834 60.3572 0 -198.176 134.43 69.6922 29.3183 0.630099 -0.776514 1 0.5 0 1
154 1 4.15376 51.6225 0 4.15376 51.6225 0 -162.516 -13.1875 -131.911 -260.525 0.577467 0.816414 1 0.5 0 1
155 1 71.0485 68.4691 0 -87.4835 -10.7969 0 -225.239 466.048 -46.9218 42.4258 0.0935184 0.995618 1 0.5 0 1
156 1 74.6305 48.7392 0 74.6305 48.7392 0 347.95 -242.46 -42.3987 -113.092 -0.928779 -0.370633 1 0.5 0 1
157 1 3.98487 30.6099 0 3.98487 30.6099 0 330.337 854.864 41.7771 -251.461 0.954587 -0.297931 1 0.5 0 1
158 1 67.124 40.0354 0 -12.142 40.0354 0 563.705 -151.504 33.7382 -20.4286 0.905547 -0.424246 1 0.5 0 1
159 1 5.5782 16.2522 0 5.5782 95.5182 0 112.011 -432.969 31.7415 -125.598 -0.766995 0.641653 1 0.5 0 1
160 1 59.6141 16.4942 0 59.6141 16.4942 0 -278.732 -60.62 27.8274 0.195378 0.898511 0.438952 1 0.5 0 1
161 1 4.32673 11.7611 0 4.32673 -67.5049 0 511.61 -754.24 -81.1008 162.974 -0.90676 0.421646 1 0.5 0 1
162 1 7.7005 54.2836 0 7.7005 54.2836 0 602.216 182.696 -39.1203 -7.77169 0.463155 -0.886277 1 0.5 0 1
163 1 63.5022 50.6301 0 63.5022 50.6301 0 378.216 -22.4438 -343.307 -83.2711 0.965683 0.259722 1 0.5 0 1
164 1 58.7669 64.4645 0 58.7669 -14.8015 0 -620.365 957.703 -175.119 -140.225 0.993545 0.113438 1 0.5 0 1
165 1 51.8006 16.4335 0 51.8006 95.6995 0 -133.413 -208.974 83.0115 85.1645 0.599885 0.800086 1 0.5 0 1
166 1 10.0594 46.1872 0 10.0594 46.1872 0 98.9587 376.299 -137.511 -0.43176 0.628244 0.778016 1 0.5 0 1
167 1 63.7107 29.8737 0 63.7107 29.8737 0 -679.651 -6.91817 -15.4512 -55.7269 0.647266 -0.762264 1 0.5 0 1
168 1 13.8479 65.7947 0 -65.4181 65.7947 0 -364.206 381.249 7.98886 -99.4093 0.263896 -0.964551 1 0.5 0 1
169 1 24.2511 54.2062 0 -55.0149 133.472 0 -109.301 889.316 17.1218 -13.8754 -0.828952 -0.55932 1 0.5 0 1
170 1 30.4996 62.4605 0 109.766 141.726 0 246.067 -305.966 -31.4812 -2.04785 0.849515 0.527565 1 0.5 0 1
171 1 61.279 69.0665 0 140.545 -10.1995 0 826.211 -610.943 -232.993 22.6266 0.658533 -0.752552 1 0.5 0 1
172 1 10.2563 59.3337 0 10.2563 -19.9323 0 -425.531 -115.095 43.6573 -78.4664 0.666003 -0.745949 1 0.5 0 1
173 1 52.4431 19.6741 0 52.4431 -59.5919 0 -437.396 124.262 -24.1399 76.059 0.625822 0.779966 1 0.5 0 1
174 1 11.1436 53.3469 0 11.1436 53.3469 0 17.4386 -8.94269 -98.6613 -83.8921 -0.998076 -0.0620007 1 0.5 0 1
175 1 55.4257 68.0507 0 -23.8403 -11.2153 0 296.111 65.9184 -157.798 -16.239 0.375547 0.926803 1 0.5 0 1
176 1 12.5089 51.8759 0 12.5089 51.8759 0 -201.219 129.447 107.197 -179.042 0.777294 0.629138 1 0.5 0 1
177 1 4.08845 70.2619 0 4.08845 70.2619 0 594.326 -735.135 -8.39027 44.3987 -0.109175 -0.994023 1 0.5 0 1
178 1 56.5095 29.3389 0 -22.7565 108.605 0 445.702 -232.654 -281.184 71.9262 -0.995812 0.0914233 1 0.5 0 1
179 1 5.81238 57.504 0 5.81238 -21.762 0 275.295 -275.989 141.972 -14.4616 0.998827 -0.0484289 1 0.5 0 1
180 1 73.8645 42.1681 0 73.8645 42.1681 0 318.823 217.835 -168.187 71.3531 -0.249527 -0.968368 1 0.5 0 1
181 1 77.8737 11.4394 0 77.8737 11.4394 0 371.497 -414.288 22.772 -99.4785 0.96921 0.246234 1 0.5 0 1
182 1 7.03716 71.6238 0 -72.2288 71.6238 0 -23.6436 -82.1122 -105.958 93.0791 -0.481962 -0.876192 1 0.5 0 1
183 1 58.9194 58.284 0 58.9194 -20.982 0 -169.973 -176.536 -183.227 23.4857 -0.929708 -0.368297 1 0.5 0 1
184 1 63.4877 43.3556 0 63.4877 43.3556 0 -390.761 -263.385 -57.2578 37.7735 0.151168 -0.988508 1 0.5 0 1
185 1 56.6248 18.1041 0 -22.6412 18.1041 0 601.033 -466.37 -61.1323 91.3229 0.74661 0.665263 1 0.5 0 1
186 1 20.496 44.2568 0 -58.77 123.523 0 -88.0188 -393.678 -29.2937 -32.669 0.235181 0.971952 1 0.5 0 1
187 1 55.3642 35.4412 0 -23.9018 114.707 0 370.042 -74.124 -302.003 -13.3414 -0.24423 0.969717 1 0.5 0 1
188 1 64.8998 15.2347 0 144.166 94.5007 0 -1070.94 471.394 111.316 47.9502 0.859296 0.511479 1 0.5 0 1
189 1 5.61887 3.86286 0 5.61887 83.1289 0 -247.404 1263.4 41.8374 90.8275 0.418374 0.908275 1 0.5 0 1
190 1 22.4475 52.0343 0 -56.8185 52.0343 0 195.687 -417.729 17.0969 -0.736137 0.719323 0.694676 1 0.5 0 1
191 1 74.9525 75.8842 0 154.219 -3.38183 0 -361.487 -266.382 165.836 -78.9788 0.817536 -0.575877 1 0.5 0 1
192 1 58.7569 38.211 0 58.7569 38.211 0 31.14 21.4189 22.0998 -107.391 -0.146623 -0.989192 1 0.5 0 1
193 1 76.3954 13.6541 0 -2.87063 92.9201 0 245.21 -637.236 -56.3545 11.0279 0.0871072 0.996199 1 0.5 0 1
194 1 11.9899 27.0667 0 11.9899 -52.1993 0 128.307 -77.4465 25.9653 -125.54 -0.903015 -0.429609 1 0.5 0 1
195 1 53.429 31.101 0 53.429 31.101 0 353.876 778.452 -117.633 31.5873 0.750519 0.660849 1 0.5 0 1
196 1 58.7617 41.8539 0 58.7617 41.8539 0 322.3 -40.118 10.5477 -48.6709 0.95608 -0.293106 1 0.5 0 1
197 1 72.237 61.4128 0 -7.02905 61.4128 0 -89.8118 205.235 68.9145 93.7496 0.93684 -0.349758 1 0.5 0 1
198 1 73.8547 45.8029 0 73.8547 45.8029 0 -644.228 83.8486 -181.838 -11.5336 -0.974039 0.226382 1 0.5 0 1
199 1 68.5794 69.6103 0 -10.6866 -9.65575 0 -675.833 50.1222 137.015 -57.5209 0.290109 -0.956993 1 0.5 0 1
200 1 1.37876 18.2289 0 80.6448 97.4949 0 -702.117 -279.529 35.2413 -181.103 0.0941478 0.995558 1 0.5 0 1
201 1 63.5446 12.8553 0 -15.7214 92.1213 0 654.168 -83.3022 -18.9104 49.5536 0.527888 0.849314 1 0.5 0 1
202 1 56.7121 60.44 0 -22.5539 -18.826 0 15.2441 495.965 -64.1732 -242.986 0.729934 0.683517 1 0.5 0 1
203 1 16.6495 42.5382 0 -62.6165 121.804 0 -249.814 1195.33 52.2268 114.675 -0.965709 -0.259629 1 0.5 0 1
204 1 65.6706 63.9325 0 65.6706 -15.3335 0 178.636 -166.775 145.506 -85.1923 -0.517095 -0.855928 1 0.5 0 1
205 1 48.383 22.147 0 48.383 101.413 0 -425.213 -59.3849 17.1953 -61.1514 0.192547 0.981288 1 0.5 0 1
206 1 4.74809 60.8805 0 4.74809 -18.3855 0 -296.929 -42.7546 -105.267 130.069 -0.885758 -0.464148 1 0.5 0 1
207 1 60.4694 64.0403 0 60.4694 64.0403 0 -224.768 407.231 51.4863 29.5016 0.963629 -0.267245 1 0.5 0 1
208 1 8.41009 33.7154 0 8.41009 33.7154 0 156.84 -406.389 -16.668 22.5458 0.999982 0.00603882 1 0.5 0 1
209 1 52.665 28.0611 0 52.665 107.327 0 137.596 -530.429 -81.768 292.441 0.810217 -0.58613 1 0.5 0 1
210 1 67.1378 62.5744 0 -12.1282 62.5744 0 701.579 461.349 74.8132 130.628 -0.178409 0.983956 1 0.5 0 1
211 1 60.8763 43.4241 0 60.8763 43.4241 0 -4.09821 -440.064 -237.643 -186.948 -0.225371 -0.974273 1 0.5 0 1
212 1 21.7603 47.4683 0 180.292 47.4683 0 357.578 108.691 24.6495 -100.394 0.189176 0.981943 1 0.5 0 1
213 1 70.3917 65.435 0 70.3917 65.435 0 -529.197 141.289 45.5578 105.494 -0.716625 -0.697459 1 0.5 0 1
214 1 36.3322 32.2667 0 36.3322 32.2667 0 -551.783 -738.927 -22.6549 -16.6759 -0.260355 -0.965513 1 0.5 0 1
215 1 55.2383 61.8959 0 55.2383 -17.3701 0 -118.66 -211.558 142.078 116.719 0.651663 0.758509 1 0.5 0 1
216 1 15.5808 47.8371 0 15.5808 127.103 0 -204.304 -456.227 96.3713 -141.214 -0.194979 0.980807 1 0.5 0 1
217 1 16.4095 74.6876 0 174.942 74.6876 0 -170.746 517.653 72.0087 -69.3884 0.720087 -0.693884 1 0.5 0 1
218 1 46.5482 50.9408 0 46.5482 50.9408 0 554.744 119.522 -24.0539 -2.76425 -0.897069 -0.441891 1 0.5 0 1
219 1 53.3908 45.743 0 53.3908 45.743 0 626.232 -178.944 -80.8059 -136.238 -0.530294 -0.847814 1 0.5 0 1
220 1 63.8333 68.0633 0 63.8333 -90.4687 0 -341.374 -431.631 -111.708 136.036 0.120742 0.992684 1 0.5 0 1
221 1 45.0495 72.3929 0 -34.2165 151.659 0 -63.1675 409.493 2.54706 -99.9676 0.0254706 -0.999676 1 0.5 0 1
222 1 42.1741 32.5108 0 42.1741 32.5108 0 -523.261 608.364 -37.6115 -78.8897 0.904714 -0.426019 1 0.5 0 1
223 1 71.9162 37.9718 0 -7.34979 37.9718 0 109.467 653.323 -96.2575 -15.7628 0.848294 -0.529525 1 0.5 0 1
224 1 76.8711 61.929 0 -2.39494 61.929 0 -778.649 -255.154 39.484 217.977 0.629797 -0.77676 1 0.5 0 1
225 1 13.7344 25.3332 0 93.0004 -53.9328 0 -166.397 484.888 2.20295 -4.94219 -0.796475 -0.604672 1 0.5 0 1
226 1 26.6116 49.9648 0 -52.6544 -29.3012 0 893.941 -259.485 44.7585 21.3592 -0.624535 -0.780997 1 0.5 0 1
227 1 1.45903 37.911 0 80.725 37.911 0 96.1886 -592.357 289.508 172.99 0.391881 -0.920016 1 0.5 0 1
228 1 17.0733 62.6409 0 -62.1927 -16.6251 0 -941.601 503.165 9.358 -63.2349 -0.11752 -0.993071 1 0.5 0 1
229 1 51.6369 41.5094 0 51.6369 41.5094 0 -479.917 122.23 95.8643 93.0384 -0.675288 -0.737554 1 0.5 0 1
230 1 52.1082 39.8245 0 52.1082 119.09 0 -365.915 245.133 -41.4516 119.53 -0.917735 -0.397193 1 0.5 0 1
231 1 3.6459 25.0758 0 3.6459 104.342 0 257.065 -230.257 -214.85 137.162 -0.940057 0.341017 1 0.5 0 1
232 1 45.1979 27.8603 0 45.1979 -51.4057 0 -449.248 -328.296 127.25 39.0186 0.131085 0.991371 1 0.5 0 1
233 1 8.3323 47.3983 0 8.3323 47.3983 0 411.682 77.9521 -296.024 -72.2109 0.908015 0.418937 1 0.5 0 1
234 1 69.4891 10.9553 0 69.4891 10.9553 0 296.901 469.253 3.40405 10.5063 -0.495984 0.868332 1 0.5 0 1
235 1 24.4912 49.5995 0 24.4912 128.865 0 -1279.28 -426.093 47.213 -3.6685 -0.228367 0.973575 1 0.5 0 1
236 1 55.7053 69.0011 0 134.971 -10.2649 0 -218.743 28.2517 93.5391 189.946 0.89328 0.4495 1 0.5 0 1
237 1 71.0289 72.1331 0 71.0289 -7.13285 0 612.899 -454.017 -11.8916 82.5194 0.383411 -0.923578 1 0.5 0 1
238 1 68.0115 21.9107 0 68.0115 101.177 0 300.709 152.027 51.2266 11.8375 0.934136 0.356918 1 0.5 0 1
239 1 2.89698 43.945 0 82.163 43.945 0 -188.788 381.757 102.418 -98.1331 0.497277 -0.867592 1 0.5 0 1
240 1 71.6299 17.5346 0 71.6299 17.5346 0 -7.62333 -373.867 -65.9956 2.02518 0.714497 -0.699639 1 0.5 0 1
241 1 48.0904 37.6409 0 48.0904 37.6409 0 1031.87 43.2135 -75.7961 -46.0989 0.539555 -0.84195 1 0.5 0 1
242 1 7.20254 64.7963 0 86.4685 -14.4697 0 483.415 33.3797 18.7081 -15.8905 0.839296 -0.543675 1 0.5 0 1
243 1 56.0419 72.3661 0 -102.49 72.3661 0 471.418 182.295 -12.1498 -10.4166 -0.568733 -0.822522 1 0.5 0 1
244 1 59.8722 24.9564 0 59.8722 104.222 0 -317.026 28.7997 188.678 -108.487 0.121665 -0.992571 1 0.5 0 1
245 1 56.7339 52.1429 0 56.7339 52.1429 0 -13.27 -814.405 -65.888 217.029 0.303524 -0.952824 1 0.5 0 1
246 1 49.1254 42.6341 0 49.1254 42.6341 0 -484.357 469.838 -90.799 -425.129 0.982464 -0.186452 1 0.5 0 1
247 1 68.0472 54.6786 0 68.0472 -24.5874 0 -92.7973 -89.1184 -260.89 -106.657 0.22111 -0.975249 1 0.5 0 1
248 1 63.376 10.3593 0 -15.89 10.3593 0 284.526 -649.686 88.2929 -46.9507 0.882929 -0.469507 1 0.5 0 1
249 1 41.0941 45.2094 0 120.36 -34.0566 0 -302.101 345.429 257.13 -91.7635 0.00650559 0.999979 1 0.5 0 1
250 1 56.5763 68.505 0 215.108 68.505 0 -615.45 728.229 -49.6316 104.231 -0.427351 -0.904086 1 0.5 0 1
251 1 63.163 15.6089 0 63.163 174.141 0 537.249 -924.397 114.95 51.1104 0.999755 -0.0221563 1 0.5 0 1
252 1 59.1883 22.0696 0 59.1883 101.336 0 -929.904 -53.7589 68.5083 120.707 -0.791302 -0.611425 1 0.5 0 1
253 1 17.1293 50.0309 0 17.1293 50.0309 0 -365.323 123.194 85.5938 70.8158 -0.0572934 -0.998357 1 0.5 0 1
254 1 47.3011 34.6809 0 47.3011 113.947 0 -90.8545 554.102 -112.494 44.6341 0.376793 -0.926298 1 0.5 0 1
255 1 0.649255 34.9801 0 79.9153 114.246 0 -507.309 -488.628 -42.6162 -69.3948 -0.57456 0.818462 1 0.5 0 1
256 1 68.6858 43.3767 0 -10.5802 43.3767 0 243.462 -689.018 21.2092 -83.0955 -0.512765 0.858529 1 0.5 0 1
257 1 7.15058 39.8253 0 7.15058 119.091 0 -29.501 -523.237 -72.453 85.313 -0.730638 0.682765 1 0.5 0 1
258 1 6.15085 28.5699 0 6.15085 -50.6961 0 550.689 156.23 -46.7755 -42.3363 0.255184 0.966893 1 0.5 0 1
259 1 27.162 16.0204 0 27.162 16.0204 0 -443.763 -232.59 -50.1513 -86.515 -0.501513 -0.86515 1 0.5 0 1
260 1 71.5043 70.4428 0 150.77 -8.82325 0 -565.708 -137.975 173.979 77.4184 0.99991 -0.0134426 1 0.5 0 1
261 1 11.1374 24.1334 0 11.1374 24.1334 0 -77.7097 -408.354 -44.5076 65.6335 -0.922851 0.385156 1 0.5 0 1
262 1 56.9304 61.384 0 136.196 -17.882 0 -178.623 342.775 33.3409 97.1756 -0.396761 -0.917922 1 0.5 0 1
263 1 0.630191 72.6939 0 -78.6358 -85.8381 0 -370.782 -312.648 138.616 65.7941 -0.0138145 -0.999905 1 0.5 0 1
264 1 17.4522 37 0 175.984 -42.266 0 -140.312 -862.334 -24.5498 247.506 -0.93559 -0.353089 1 0.5 0 1
265 1 52.2255 29.7704 0 52.2255 109.036 0 -1088.37 -276.972 -49.3718 -31.1104 0.895681 -0.444696 1 0.5 0 1
266 1 56.1746 53.841 0 56.1746 53.841 0 573.632 342.049 53.1965 -19.2078 0.842607 0.538529 1 0.5 0 1
267 1 73.5716 63.6708 0 -5.69439 -15.5952 0 -877.121 80.1722 99.7969 -82.2394 -0.846379 -0.53258 1 0.5 0 1
268 1 67.6577 60.8919 0 67.6577 60.8919 0 -685.647 198.007 234.325 65.9022 0.91862 -0.395141 1 0.5 0 1
269 1 35.8354 62.6272 0 115.101 62.6272 0 95.8049 588.525 93.2215 36.1905 0.932215 0.361905 1 0.5 0 1
270 1 10.4188 69.6822 0 10.4188 -9.58381 0 -901.109 -251.187 33.8139 23.2648 -0.0734148 -0.997301 1 0.5 0 1
271 1 25.0546 8.86729 0 104.321 8.86729 0 181.695 798.286 99.8373 5.70124 0.998373 0.0570124 1 0.5 0 1
272 1 51.1558 39.5967 0 51.1558 39.5967 0 -237.697 -464.031 -23.6596 -297.793 0.0202714 0.999795 1 0.5 0 1
273 1 60.1104 51.4097 0 60.1104 51.4097 0 76.5115 208.445 5.67983 -76.8332 -0.788092 0.615557 1 0.5 0 1
274 1 26.4217 35.1115 0 105.688 35.1115 0 -176.32 655.236 -60.549 79.5853 -0.60549 0.795853 1 0.5 0 1
275 1 9.96821 64.6131 0 89.2342 -14.6529 0 346.247 -46.3796 -53.3165 -1.75592 0.831264 0.555878 1 0.5 0 1
276 1 58.0251 46.2179 0 58.0251 46.2179 0 -387.69 -165.91 -257.107 142.965 0.187502 0.982264 1 0.5 0 1
277 1 46.3285 65.6957 0 46.3285 -13.5703 0 -290.812 -318.284 99.455 -10.4263 0.99455 -0.104263 1 0.5 0 1
278 1 9.3683 33.9678 0 -69.8977 113.234 0 740.544 -744.579 -279.092 22.447 -0.288983 -0.957334 1 0.5 0 1
279 1 16.9108 43.5577 0 96.1768 -114.974 0 -136.196 247.023 -2.72737 19.9415 -0.332781 0.943004 1 0.5 0 1
280 1 2.68743 74.7406 0 -76.5786 -83.7914 0 -201.492 -286.156 -15.7666 -54.2353 0.247861 -0.968796 1 0.5 0 1
281 1 69.4101 56.8885 0 69.4101 56.8885 0 -372.939 150.14 -89.5499 39.7535 -0.959419 -0.281986 1 0.5 0 1
282 1 48.0755 49.6183 0 48.0755 -29.6477 0 -917.251 -83.4133 79.7022 -80.8267 0.976057 -0.217517 1 0.5 0 1
283 1 68.742 32.3974 0 -10.524 111.663 0 -478.015 245.076 -148.49 -38.6528 -0.344654 -0.93873 1 0.5 0 1
284 1 4.96827 30.8767 0 4.96827 110.143 0 -59.2261 57.1533 4.66393 -23.9293 0.623111 -0.782134 1 0.5 0 1