ITEM: TIMESTEP
310000
ITEM: NUMBER OF ATOMS
4000
ITEM: BOX BOUNDS pp pp pp
0.0000000000000000e+00 7.9266000000000005e+01
0.0000000000000000e+00 7.9266000000000005e+01
-5.0000000000000000e-01 5.0000000000000000e-01
ITEM: ATOMS id type x y z xu yu zu vx vy fx fy mux muy mu radius omegaz mass
1 1 0.961943 64.3737 0 80.2279 64.3737 0 356.261 -184.083 227.054 100.466 -0.996799 -0.0799544 1 0.5 0 1
2 1 59.5158 17.0471 0 59.5158 17.0471 0 -283.43 322.41 74.628 -53.2504 0.861396 0.507935 1 0.5 0 1
3 1 15.1392 35.3872 0 15.1392 -43.8788 0 29.0078 -258.409 10.1327 162.414 -0.862491 0.506072 1 0.5 0 1
4 1 35.658 36.0567 0 35.658 36.0567 0 60.5005 146.93 -43.9752 -89.8119 -0.439752 -0.898119 1 0.5 0 1
5 1 2.65634 31.1156 0 2.65634 31.1156 0 -778.219 405.694 154.869 30.0977 -0.444103 0.895976 1 0.5 0 1
6 1 69.8041 28.0221 0 -9.46187 28.0221 0 -237.494 -438.674 24.6222 133.059 -0.706383 -0.70783 1 0.5 0 1
7 1 66.8484 48.6746 0 66.8484 48.6746 0 -448.598 -98.1125 59.7922 -201.555 0.0161252 0.99987 1 0.5 0 1
8 1 15.6969 38.3487 0 15.6969 -40.9173 0 705.019 292.358 65.1479 148.26 -0.661006 -0.75038 1 0.5 0 1
9 1 68.4862 25.8291 0 68.4862 25.8291 0 811.895 -9.68014 -175.183 -149.817 -0.314233 -0.949346 1 0.5 0 1
10 1 18.0641 54.3265 0 18.0641 54.3265 0 -659.756 -138.144 55.1212 -20.3925 -0.309995 -0.950738 1 0.5 0 1
11 1 13.2392 77.3611 0 -66.0268 -1.90487 0 440.177 108.351 -24.5574 52.365 -0.58814 0.808759 1 0.5 0 1
12 1 1.08545 22.2155 0 80.3515 101.482 0 323.024 -306.052 -143.074 190.396 -0.370682 0.92876 1 0.5 0 1
13 1 75.4515 68.8048 0 75.4515 -10.4612 0 -212.588 -21.2156 95.5772 -8.90308 -0.530287 -0.847818 1 0.5 0 1
14 1 40.542 35.3374 0 -117.99 35.3374 0 632.217 -74.2849 -22.1542 112.859 -0.484025 0.875054 1 0.5 0 1
15 1 10.385 33.8137 0 10.385 33.8137 0 -31.1507 -597.853 -202.727 77.4243 -0.995929 -0.0901457 1 0.5 0 1
16 1 16.087 48.855 0 -63.179 -30.411 0 428.029 -649.231 -31.1983 126.4 -0.540908 0.841082 1 0.5 0 1
17 1 39.5055 41.8727 0 118.771 121.139 0 367.43 68.4625 -44.5217 -80.8101 0.226303 0.974057 1 0.5 0 1
18 1 25.3856 55.2414 0 25.3856 55.2414 0 -564.411 356.125 94.9939 -31.2434 0.949939 -0.312434 1 0.5 0 1
19 1 3.92578 40.5817 0 3.92578 40.5817 0 630.949 -865.245 -53.9693 294.631 0.978833 0.204662 1 0.5 0 1
20 1 13.8254 56.4434 0 13.8254 56.4434 0 -215.181 839.654 -197.189 70.5283 0.650177 -0.759783 1 0.5 0 1
21 1 3.87736 27.8405 0 3.87736 27.8405 0 -1023.68 584.133 -126.067 0.849238 -0.91543 0.402477 1 0.5 0 1
22 1 2.57914 20.8672 0 81.8451 20.8672 0 -6.82486 -296.612 53.0385 -76.3816 -0.972184 0.234218 1 0.5 0 1
23 1 28.8604 37.205 0 108.126 37.205 0 -409.453 103.856 61.8784 78.5561 0.618784 0.785561 1 0.5 0 1
24 1 65.8994 56.4594 0 65.8994 -22.8066 0 126.085 49.454 -83.4669 -211.64 0.96946 0.245251 1 0.5 0 1
25 1 47.9419 29.4999 0 -31.3241 -49.7661 0 339.484 -1015.26 101.69 180.625 0.641709 -0.766948 1 0.5 0 1
26 1 51.9861 56.28 0 51.9861 -102.252 0 537.371 -1113.37 -115.37 -20.4508 0.00927538 -0.999957 1 0.5 0 1
27 1 74.7587 16.8644 0 -4.50731 96.1304 0 -762.053 -520.714 25.7103 -256.811 -0.747204 0.664595 1 0.5 0 1
28 1 55.221 16.8308 0 55.221 96.0968 0 -258.15 -433.447 30.2293 -52.5566 0.99339 0.114788 1 0.5 0 1
29 1 73.7475 37.3678 0 -5.51848 37.3678 0 51.7272 -170.957 0.913225 54.662 -0.994063 0.10881 1 0.5 0 1
30 1 63.3991 14.1816 0 63.3991 93.4476 0 542.289 347.495 49.4011 -160.349 0.729077 0.684432 1 0.5 0 1
31 1 74.7577 25.8891 0 -4.5083 25.8891 0 -84.4334 67.9863 148.685 110.854 -0.867001 0.498307 1 0.5 0 1
32 1 78.3393 12.3454 0 -0.926739 12.3454 0 -301.184 216.694 -64.6705 29.0452 -0.628046 0.778177 1 0.5 0 1
33 1 64.3744 57.739 0 64.3744 -21.527 0 -292.173 52.1903 279.768 342.55 0.0648394 -0.997896 1 0.5 0 1
34 1 5.55011 43.8724 0 84.8161 43.8724 0 2.93938 372.403 -66.6167 -400.94 0.718049 0.695993 1 0.5 0 1
35 1 33.8573 45.0298 0 -45.4087 45.0298 0 225.019 -740.375 40.8812 -53.874 0.889247 -0.457427 1 0.5 0 1
36 1 59.8555 57.3374 0 59.8555 -21.9286 0 458.169 -211.463 35.5059 163.155 0.907801 0.4194 1 0.5 0 1
37 1 69.5451 41.4013 0 69.5451 41.4013 0 175.343 -171.504 58.6019 263.478 -0.977106 -0.212754 1 0.5 0 1
38 1 68.6321 11.1284 0 147.898 90.3944 0 418.677 137.822 -81.9081 54.7041 0.73838 0.674385 1 0.5 0 1
39 1 11.1051 21.5123 0 90.3711 -57.7537 0 225.372 860.73 -100.907 7.65321 -0.381683 0.924293 1 0.5 0 1
40 1 50.0422 12.3092 0 -29.2238 91.5752 0 648.654 -271.891 50.4264 86.355 0.504264 0.86355 1 0.5 0 1
41 1 68.3946 51.8791 0 68.3946 51.8791 0 -387.674 557.634 197.626 -64.8734 -0.306649 0.951823 1 0.5 0 1
42 1 74.3276 59.1814 0 -4.93835 59.1814 0 -128.006 186.132 -113.996 -156.063 0.0158739 -0.999874 1 0.5 0 1
43 1 1.23189 14.6018 0 -78.0341 93.8678 0 19.8768 -592.334 146.005 -22.2177 -0.598954 0.800784 1 0.5 0 1
44 1 64.7936 20.1261 0 64.7936 99.3921 0 355.14 617.684 -176.515 -220.324 -0.62549 0.780232 1 0.5 0 1
45 1 24.3269 23.8958 0 24.3269 -55.3702 0 25.6334 -114.46 -47.8997 -60.1452 0.299708 -0.954031 1 0.5 0 1
46 1 6.50032 40.6539 0 6.50032 40.6539 0 -1213.39 -23.5962 280.391 -65.2419 -0.171251 0.985228 1 0.5 0 1
47 1 57.7405 60.5324 0 57.7405 -18.7336 0 597.323 8.1654 -111.546 -37.6721 -0.254506 -0.967071 1 0.5 0 1
48 1 11.2161 45.9873 0 11.2161 45.9873 0 172.846 175.906 -182.55 113.996 -0.907786 0.419434 1 0.5 0 1
49 1 52.2611 17.5493 0 52.2611 96.8153 0 -621.237 58.7944 -79.3217 60.8939 -0.793217 0.608939 1 0.5 0 1
50 1 19.709 18.4063 0 19.709 18.4063 0 672.172 -731.791 -36.6774 -93.031 -0.366774 -0.93031 1 0.5 0 1
51 1 30.1889 5.06971 0 -49.0771 5.06971 0 -236.328 -452.186 -89.4646 44.6777 -0.894646 0.446777 1 0.5 0 1
52 1 3.81808 32.4395 0 83.0841 32.4395 0 -307.54 173.273 -57.5419 82.6456 -0.802537 0.596602 1 0.5 0 1
53 1 10.8064 54.263 0 10.8064 133.529 0 -500.284 -479.068 35.2489 30.7784 -0.817679 0.575674 1 0.5 0 1
54 1 53.0549 28.8102 0 53.0549 28.8102 0 -478.486 -391.655 249.946 34.3373 -0.309745 0.95082 1 0.5 0 1
55 1 18.6657 42.1045 0 97.9317 121.37 0 -648.259 -282.866 -0.508841 79.8753 -0.86851 0.495672 1 0.5 0 1
56 1 35.2881 37.1636 0 35.2881 37.1636 0 17.3834 148.62 96.7583 -25.2553 0.967583 -0.252553 1 0.5 0 1
57 1 17.7033 30.2047 0 17.7033 109.471 0 220.069 -475.052 -14.6606 -26.5795 -0.919214 -0.393759 1 0.5 0 1
58 1 67.7125 26.5485 0 -11.5535 26.5485 0 140.174 331.552 9.91773 -161.206 -0.828116 -0.560557 1 0.5 0 1
59 1 52.0094 32.986 0 52.0094 32.986 0 -218.809 394.727 -165.543 -8.51025 -0.999224 -0.0393843 1 0.5 0 1
60 1 56.2325 39.7134 0 56.2325 39.7134 0 -38.8438 213.4 -140.907 -66.4334 -0.116795 -0.993156 1 0.5 0 1
61 1 58.848 43.2149 0 58.848 43.2149 0 -180.781 9.72201 52.8663 48.8466 0.435435 0.90022 1 0.5 0 1
62 1 57.0976 18.9829 0 136.364 18.9829 0 -91.2392 -520.24 -93.4748 79.1489 0.626862 0.77913 1 0.5 0 1
63 1 12.5311 59.6493 0 -66.7349 -19.6167 0 520.079 535.568 56.6471 -32.6533 0.953398 0.301716 1 0.5 0 1
64 1 47.6436 27.6112 0 126.91 106.877 0 -681.165 586.693 108.498 -226.763 0.364017 0.931392 1 0.5 0 1
65 1 8.6098 76.1895 0 167.142 76.1895 0 -148.336 -29.3645 -2.50544 -40.1896 0.974199 0.225692 1 0.5 0 1
66 1 12.6341 44.6716 0 91.9001 123.938 0 -805.779 113.028 -59.0322 -140.137 -0.75424 0.656599 1 0.5 0 1
67 1 54.1233 41.6101 0 54.1233 41.6101 0 199.928 188.961 -18.6475 48.867 -0.701301 -0.712865 1 0.5 0 1
68 1 14.4274 40.736 0 14.4274 40.736 0 -592.865 -59.5119 248.953 -31.0792 -0.583944 0.811794 1 0.5 0 1
69 1 43.8346 22.9421 0 43.8346 22.9421 0 491.891 -279.719 60.7275 -89.4164 0.698467 -0.715643 1 0.5 0 1
70 1 48.3648 37.0071 0 48.3648 116.273 0 610.623 -388.25 65.6391 9.21943 0.750414 -0.660968 1 0.5 0 1
71 1 0.71739 15.4626 0 79.9834 15.4626 0 597.913 506.527 -12.8553 16.2755 0.948456 0.316908 1 0.5 0 1
72 1 3.21872 56.244 0 3.21872 56.244 0 -337.235 97.9259 218.425 -5.54954 -0.611855 -0.79097 1 0.5 0 1
73 1 78.3737 10.3341 0 -0.892255 10.3341 0 106.862 151.151 -231.643 21.2581 -0.932398 0.361433 1 0.5 0 1
74 1 57.2382 21.0471 0 57.2382 100.313 0 592.185 -376.682 126.166 5.60823 0.655737 0.75499 1 0.5 0 1
75 1 75.3936 37.0212 0 -3.87236 37.0212 0 -874.009 -815.227 125.014 132.874 0.332935 0.94295 1 0.5 0 1
76 1 48.8444 24.2448 0 -30.4216 24.2448 0 156.302 432.646 -86.8555 15.8481 0.146652 0.989188 1 0.5 0 1
77 1 77.9993 33.3584 0 -1.26673 33.3584 0 902.562 86.8431 33.688 -115.515 0.996238 0.0866572 1 0.5 0 1
78 1 57.6398 16.2743 0 57.6398 95.5403 0 236.354 333.625 -38.5284 -23.973 0.318316 0.947985 1 0.5 0 1
79 1 46.7215 67.1527 0 -32.5445 67.1527 0 -181.515 360.623 -3.95235 -99.9219 -0.0395235 -0.999219 1 0.5 0 1
80 1 0.877905 25.8215 0 0.877905 -53.4445 0 -113.222 174.056 -74.1479 52.5434 0.999682 0.0251991 1 0.5 0 1
81 1 47.7421 34.0425 0 127.008 34.0425 0 -177.259 143.439 39.196 100.87 0.0192308 -0.999815 1 0.5 0 1
82 1 0.621516 37.5857 0 0.621516 37.5857 0 -800.16 572.615 278.474 3.2655 -0.183688 0.982985 1 0.5 0 1
83 1 40.6238 42.0797 0 119.89 121.346 0 -63.5061 104.058 88.503 -6.50061 0.297836 0.954617 1 0.5 0 1
84 1 76.008 43.5216 0 -3.25796 43.5216 0 -177.643 -285.391 -50.7636 -70.8794 -0.999266 -0.0383138 1 0.5 0 1
85 1 58.8742 14.5801 0 58.8742 14.5801 0 -377.37 552.073 10.4318 -22.2058 -0.616012 0.787737 1 0.5 0 1
86 1 10.6024 39.3301 0 10.6024 39.3301 0 -103.293 805.396 3.76204 92.788 -0.983597 -0.180381 1 0.5 0 1
87 1 11.0687 41.2651 0 11.0687 41.2651 0 -42.9858 232.055 -75.752 178.665 -0.97779 -0.209585 1 0.5 0 1
88 1 15.1466 61.9684 0 15.1466 -17.2976 0 166.523 397.388 22.7785 10.3617 -0.791301 -0.611427 1 0.5 0 1
89 1 44.8442 19.2702 0 44.8442 19.2702 0 299.133 -303.245 56.1014 -60.2943 0.127067 -0.991894 1 0.5 0 1
90 1 3.95635 36.9893 0 3.95635 36.9893 0 346.841 1.46823 80.393 -141.433 -0.77866 0.627446 1 0.5 0 1
91 1 14.832 58.0326 0 14.832 -21.2334 0 -654.453 -37.0109 22.5337 3.89084 -0.598526 -0.801104 1 0.5 0 1
92 1 2.49977 53.3878 0 2.49977 53.3878 0 231.649 -288.259 -51.6328 193.703 -0.954592 -0.297915 1 0.5 0 1
93 1 1.19726 44.1134 0 1.19726 44.1134 0 538.548 417.818 48.4814 -184.035 0.478549 0.878061 1 0.5 0 1
94 1 69.7669 35.1575 0 69.7669 35.1575 0 425.304 661.535 -122.841 136.048 0.621057 -0.783765 1 0.5 0 1
95 1 66.6363 47.6802 0 66.6363 47.6802 0 135.866 59.8901 30.8563 68.1103 -0.676347 -0.736583 1 0.5 0 1
96 1 53.8699 40.6279 0 53.8699 40.6279 0 97.4923 -182.145 -47.44 162.617 -0.196809 -0.980442 1 0.5 0 1
97 1 30.5433 49.7762 0 30.5433 -29.4898 0 -95.7025 -353.341 -48.3725 -77.5311 0.0255015 -0.999675 1 0.5 0 1
98 1 22.1808 51.395 0 22.1808 51.395 0 506.057 -39.4445 -43.6198 -24.2285 -0.955658 -0.294477 1 0.5 0 1
99 1 42.7874 39.8659 0 42.7874 -39.4001 0 -55.7188 158.705 20.7298 -51.6498 0.685868 0.727726 1 0.5 0 1
100 1 72.2941 42.3685 0 72.2941 42.3685 0 -71.9593 -540.996 104.749 -82.6623 -0.0558936 -0.998437 1 0.5 0 1
101 1 49.7868 45.4235 0 49.7868 -33.8425 0 62.2981 -549.027 65.7063 -112.048 0.593835 0.804587 1 0.5 0 1
102 1 78.1439 41.4853 0 -1.12212 41.4853 0 -391.213 -128.22 -88.1553 46.0962 -0.287751 -0.957705 1 0.5 0 1
103 1 10.9498 3.52805 0 -68.3162 162.06 0 596.322 -549.497 -92.4877 38.0267 -0.924877 0.380267 1 0.5 0 1
104 1 53.4276 42.2531 0 53.4276 121.519 0 -5.70906 1032.99 52.9478 96.4524 0.874606 0.484835 1 0.5 0 1
105 1 77.1045 7.09409 0 -2.16154 7.09409 0 767.493 822.946 101.689 -7.02043 0.975031 0.222069 1 0.5 0 1
106 1 13.2616 76.1966 0 13.2616 -3.06943 0 291.776 -363.87 99.3498 -11.3848 0.993498 -0.113848 1 0.5 0 1
107 1 61.5955 36.1259 0 61.5955 36.1259 0 -362.269 51.2196 -166.549 -160.773 -0.713543 -0.700611 1 0.5 0 1
108 1 78.4529 35.317 0 -0.813078 114.583 0 -953.659 737.596 217.111 -82.2054 0.908414 -0.418072 1 0.5 0 1
109 1 11.3646 17.4032 0 -67.9014 96.6692 0 -75.8545 266.543 -56.28 82.6593 -0.5628 0.826593 1 0.5 0 1
110 1 50.5957 29.6728 0 50.5957 29.6728 0 -694.482 156.233 68.3424 162.682 -0.952389 -0.304885 1 0.5 0 1
111 1 72.8148 12.6199 0 72.8148 91.8859 0 593.209 174.058 -4.44108 144.03 -0.516797 0.856108 1 0.5 0 1
112 1 9.98045 48.2392 0 9.98045 48.2392 0 421.899 128.958 22.6743 73.395 0.812544 -0.5829 1 0.5 0 1
113 1 13.7403 28.3236 0 -65.5257 107.59 0 -34.344 392.71 -88.688 124.07 -0.71945 0.694544 1 0.5 0 1
114 1 54.0381 53.2694 0 54.0381 53.2694 0 -797.993 292.122 -0.569072 57.0834 0.852976 -0.52195 1 0.5 0 1
115 1 39.1346 48.075 0 39.1346 -31.191 0 1217.8 -500.211 86.8195 -27.4564 0.638901 -0.769289 1 0.5 0 1
116 1 26.6275 39.3137 0 26.6275 -39.9523 0 -227.752 -158.7 48.6241 -136.508 0.692877 -0.721056 1 0.5 0 1
117 1 51.6277 6.25361 0 51.6277 6.25361 0 1201.31 -215.757 -11.1786 -99.3732 -0.111786 -0.993732 1 0.5 0 1
118 1 54.5573 39.9859 0 54.5573 39.9859 0 -297.798 -645.319 337.326 113.925 0.591001 -0.806671 1 0.5 0 1
119 1 55.222 19.1746 0 134.488 19.1746 0 -700.432 148.338 -15.1363 34.4629 0.996241 0.0866296 1 0.5 0 1
120 1 46.4116 49.7104 0 125.678 -29.5556 0 -243.563 -369.172 209.524 -241.338 0.219419 -0.975631 1 0.5 0 1
121 1 27.5959 64.3764 0 -130.936 -14.8896 0 -62.0588 86.7473 -76.6434 64.2324 -0.766434 0.642324 1 0.5 0 1
122 1 30.3048 78.9836 0 30.3048 78.9836 0 -28.1102 520.413 -98.7488 15.7695 -0.987488 0.157695 1 0.5 0 1
123 1 74.7003 30.4224 0 -4.56573 30.4224 0 338.013 702.286 -51.2008 123.3 -0.954877 0.297002 1 0.5 0 1
124 1 70.5931 71.6576 0 -8.67289 -7.60835 0 -141.616 612.321 82.6451 -19.9334 -0.479878 -0.877335 1 0.5 0 1
125 1 66.0515 26.9147 0 66.0515 26.9147 0 -466.871 -1080.4 -241.309 96.6735 0.322011 -0.946736 1 0.5 0 1
126 1 8.67636 34.1592 0 87.9424 113.425 0 516.344 -435.016 178.851 -87.281 0.821175 0.570676 1 0.5 0 1
127 1 57.6073 29.5225 0 57.6073 108.789 0 -916.494 -192.8 37.3523 201.067 0.76044 0.649408 1 0.5 0 1
128 1 3.34362 24.8245 0 -75.9224 24.8245 0 -124.398 770.905 30.4286 -3.70708 -0.93925 0.343233 1 0.5 0 1
129 1 67.574 56.0639 0 67.574 -23.2021 0 -314.287 60.1345 -10.0384 180.925 0.974631 -0.223819 1 0.5 0 1
130 1 73.5009 55.3161 0 73.5009 -23.9499 0 464.027 -636.212 -97.7603 -86.7017 0.687804 -0.725897 1 0.5 0 1
131 1 8.2557 75.1354 0 8.2557 75.1354 0 87.163 219.181 -16.124 -22.6038 0.0230742 -0.999734 1 0.5 0 1
132 1 59.6804 31.1107 0 -19.5856 110.377 0 20.9231 579.377 91.0069 88.947 0.993542 -0.113464 1 0.5 0 1
133 1 18.6012 47.8517 0 18.6012 127.118 0 -406.782 -306.491 12.3553 -131.731 -0.823917 -0.566711 1 0.5 0 1
134 1 11.8866 37.0699 0 11.8866 37.0699 0 490.07 -149.734 -18.116 -65.342 -0.627684 -0.778468 1 0.5 0 1
135 1 14.1947 52.874 0 14.1947 132.14 0 -417.273 63.81 -21.7237 -48.1778 -0.330347 0.943859 1 0.5 0 1
136 1 6.33548 75.5948 0 85.6015 75.5948 0 41.5068 -259.494 90.3039 113.225 0.972043 0.234804 1 0.5 0 1
137 1 47.7784 3.44066 0 127.044 82.7067 0 29.4916 -923.426 -35.2731 -93.5725 -0.352731 -0.935725 1 0.5 0 1
138 1 48.2694 50.3052 0 -30.9966 -28.9608 0 536.823 -326.055 -148.689 49.1879 0.867844 0.496836 1 0.5 0 1
139 1 42.7384 42.5096 0 42.7384 -36.7564 0 433.285 19.4496 -212.027 115.896 0.407445 -0.91323 1 0.5 0 1
140 1 0.0951791 10.2233 0 0.0951791 10.2233 0 -734.343 -358.881 162.792 24.5191 -0.965953 0.258716 1 0.5 0 1
141 1 8.45774 56.2028 0 8.45774 56.2028 0 264.527 -128.648 12.1368 -92.6009 0.398036 0.91737 1 0.5 0 1
142 1 33.0923 67.8172 0 -46.1737 67.8172 0 -642.402 -153.968 66.423 -66.21 -0.986005 0.166713 1 0.5 0 1
143 1 10.5813 34.8172 0 10.5813 114.083 0 255.936 -166.039 -18.4993 -3.1781 0.993207 0.116358 1 0.5 0 1
144 1 29.0368 65.8808 0 29.0368 -13.3852 0 -181.763 207.386 20.1792 97.9428 0.201792 0.979428 1 0.5 0 1
145 1 6.95026 71.7516 0 86.2163 71.7516 0 -518.677 203.68 13.0971 -34.0911 0.569924 -0.821697 1 0.5 0 1
146 1 59.9949 61.998 0 59.9949 -17.268 0 -114.372 156.037 219.833 -99.1949 0.834938 -0.550344 1 0.5 0 1
147 1 77.9217 69.3237 0 77.9217 -9.94226 0 -25.734 -483.6 -49.1895 -2.44222 -0.965642 -0.259877 1 0.5 0 1
148 1 51.2143 57.0038 0 130.48 57.0038 0 -126.007 -494.44 108.016 72.4206 0.248299 0.968683 1 0.5 0 1
149 1 71.8437 29.5497 0 71.8437 108.816 0 -142.607 -726.353 97.983 205.726 -0.977919 0.208984 1 0.5 0 1
150 1 66.7347 34.4175 0 -12.5313 34.4175 0 -366.917 -150.836 -47.4037 -75.9118 0.277989 0.960584 1 0.5 0 1
151 1 2.30187 55.9591 0 81.5679 -23.3069 0 641.455 264.36 -282.41 -5.80056 0.479787 -0.877385 1 0.5 0 1
152 1 61.7897 64.3991 0 61.7897 64.3991 0 -231.642 771.178 129.169 -44.1859 0.998687 -0.0512218 1 0.5 0 1
153 1 76.0267 58.7813 0 76.0267 58.7813 0 -342.491 -436.898 -95.0849 92.0402 0.947543 -0.319628 1 0.5 0 1
154 1 2.07314 47.9991 0 2.07314 47.9991 0 428.92 254.704 -55.8989 -366.284 -0.575438 0.817845 1 0.5 0 1
155 1 68.3275 65.5572 0 -90.2045 -13.7088 0 -706.461 -272.388 90.0616 116.435 0.564349 -0.825536 1 0.5 0 1
156 1 73.3839 47.1556 0 73.3839 47.1556 0 -538.405 -316.267 293.479 124.999 -0.926555 -0.376159 1 0.5 0 1
157 1 5.77653 28.5644 0 5.77653 28.5644 0 161.275 365.385 -120.945 72.6386 0.872491 -0.488631 1 0.5 0 1
158 1 67.0295 37.8673 0 -12.2365 37.8673 0 -343.2 94.2259 272.085 -20.7472 -0.414818 -0.909905 1 0.5 0 1
159 1 11.5226 75.9159 0 11.5226 75.9159 0 -571.22 247.504 -38.1491 115.967 -0.919099 0.394026 1 0.5 0 1
160 1 5.88915 69.7532 0 5.88915 -9.51282 0 -484.326 -650.805 44.379 49.8205 0.566444 -0.8241 1 0.5 0 1
161 1 40.9491 33.0538 0 40.9491 -46.2122 0 341.828 -282.23 76.6582 8.29783 0.835944 -0.548814 1 0.5 0 1
162 1 5.34873 50.8048 0 5.34873 50.8048 0 162.095 319.06 -61.6355 297.385 0.115312 -0.993329 1 0.5 0 1
163 1 63.3898 48.3969 0 63.3898 48.3969 0 -77.9681 886.333 53.3184 -175.966 0.250256 0.96818 1 0.5 0 1
164 1 56.2436 63.9789 0 56.2436 -15.2871 0 273.209 232.394 65.7964 -67.7937 0.115986 -0.993251 1 0.5 0 1
165 1 13.9045 23.7677 0 13.9045 23.7677 0 588.37 -219.66 -7.34906 97.6179 -0.15549 0.987837 1 0.5 0 1
166 1 9.8171 43.6222 0 9.8171 43.6222 0 220.805 75.712 -102.457 166.274 0.180555 0.983565 1 0.5 0 1
167 1 65.2771 27.6078 0 65.2771 27.6078 0 875.448 398.058 71.9809 -34.8243 -0.0747192 -0.997205 1 0.5 0 1
168 1 17.7316 25.3961 0 -61.5344 104.662 0 494.937 230.064 -99.9341 -3.62946 -0.999341 -0.0362946 1 0.5 0 1
169 1 32.8452 64.9694 0 -46.4208 144.235 0 -78.8902 -551.808 -98.2586 -18.5809 -0.982586 -0.185809 1 0.5 0 1
170 1 14.9816 52.2606 0 94.2476 131.527 0 -374.75 1190.58 -73.5141 -28.3472 -0.907661 -0.419705 1 0.5 0 1
171 1 52.9588 75.4299 0 132.225 -3.83614 0 -179.46 133.028 20.7372 -97.8262 0.207372 -0.978262 1 0.5 0 1
172 1 6.79624 56.5164 0 6.79624 -22.7496 0 -409.4 336.103 83.9207 -153.361 -0.485729 -0.874109 1 0.5 0 1
173 1 23.9818 38.7372 0 23.9818 -40.5288 0 -153.029 469.974 41.6285 -86.555 0.462038 -0.88686 1 0.5 0 1
174 1 8.49253 50.5935 0 8.49253 50.5935 0 245.205 800.766 -20.8736 20.9646 -0.343259 0.939241 1 0.5 0 1
175 1 53.1438 61.4267 0 -26.1222 -17.8393 0 24.0085 -80.7844 107.72 -2.97148 0.126772 -0.991932 1 0.5 0 1
176 1 10.1206 49.3197 0 10.1206 49.3197 0 -80.8099 835.587 166.779 35.1942 0.783715 0.62112 1 0.5 0 1
177 1 4.46712 65.2604 0 4.46712 65.2604 0 287.666 -331.289 17.5286 -21.4339 -0.814618 0.579998 1 0.5 0 1
178 1 57.2502 27.5982 0 -22.0158 106.864 0 -263.709 -853.53 71.0832 331.741 -0.905002 0.425408 1 0.5 0 1
179 1 3.46906 53.6781 0 3.46906 -25.5879 0 416.153 41.7858 63.7448 -47.5617 0.808117 -0.589023 1 0.5 0 1
180 1 73.5119 40.0184 0 73.5119 40.0184 0 766.117 115.135 -213.909 111.226 -0.420753 0.907175 1 0.5 0 1
181 1 62.63 14.8653 0 62.63 14.8653 0 -61.8706 -465.748 15.1403 30.276 -0.148033 0.988982 1 0.5 0 1
182 1 19.8824 64.5469 0 -59.3836 64.5469 0 -718.488 331.319 -95.3674 -14.202 -0.991502 -0.13009 1 0.5 0 1
183 1 58.8113 55.9757 0 58.8113 -23.2903 0 136.444 -58.1698 212.113 3.48925 -0.187947 0.982179 1 0.5 0 1
184 1 63.5453 41.2029 0 63.5453 41.2029 0 471.193 -662.326 19.6683 15.5162 0.435091 -0.900387 1 0.5 0 1
185 1 70.4734 79.2018 0 -8.79256 -0.0642005 0 302.659 99.7242 -32.5995 98.8616 -0.696852 0.717215 1 0.5 0 1
186 1 68.7925 8.24803 0 -10.4735 87.514 0 -502.77 -196.16 -83.1572 -34.6638 -0.927417 0.37403 1 0.5 0 1
187 1 55.6667 33.3564 0 -23.5993 112.622 0 -83.1495 -250.057 -214.753 -104.303 -0.107293 0.994227 1 0.5 0 1
188 1 61.646 14.6016 0 140.912 93.8676 0 74.2061 -171.116 -18.9761 -52.7928 0.7889 0.614522 1 0.5 0 1
189 1 8.71668 70.6344 0 8.71668 70.6344 0 -138.193 -499.743 -71.2362 -93.3064 -0.97971 0.200418 1 0.5 0 1
190 1 19.6496 52.9911 0 -59.6164 52.9911 0 -208.757 -236.535 32.1746 -70.0636 -0.985787 0.167997 1 0.5 0 1
191 1 65.7782 16.7039 0 145.044 16.7039 0 267.841 -114.394 -2.3647 143.431 -0.0543749 -0.998521 1 0.5 0 1
192 1 58.9573 36.1947 0 58.9573 36.1947 0 418.376 -489.85 30.7059 101.813 0.648347 0.761345 1 0.5 0 1
193 1 72.7826 7.03848 0 -6.48341 86.3045 0 159.891 -44.9616 67.7919 73.5136 0.677919 0.735136 1 0.5 0 1
194 1 22.2264 70.1885 0 22.2264 -9.07751 0 -467.071 174.975 0.29056 -124.57 0.366821 -0.930292 1 0.5 0 1
195 1 53.982 29.1548 0 53.982 29.1548 0 225.457 -251.608 -77.7332 -24.2606 -0.75376 -0.65715 1 0.5 0 1
196 1 58.871 39.6603 0 58.871 39.6603 0 543.757 -182.299 -111.627 205.037 -0.912076 -0.410021 1 0.5 0 1
197 1 71.0123 59.9205 0 -8.25373 59.9205 0 128.149 -533.56 37.6878 233.664 0.889243 0.457436 1 0.5 0 1
198 1 73.4608 43.6377 0 73.4608 43.6377 0 415.931 546.749 -283.399 -94.6922 -0.196695 0.980465 1 0.5 0 1
199 1 64.0485 66.7799 0 -15.2175 -12.4861 0 -231.227 200.815 111.908 94.9804 -0.694793 -0.71921 1 0.5 0 1
200 1 2.59438 15.1568 0 81.8604 94.4228 0 122.576 -58.8222 -107.662 42.6348 0.722613 0.691253 1 0.5 0 1
201 1 36.0847 58.164 0 36.0847 58.164 0 -720.799 -196.876 32.2288 11.3597 -0.569976 0.821661 1 0.5 0 1
202 1 56.6115 57.8749 0 -22.6545 -21.3911 0 136.255 -468.652 -172.682 57.0751 0.572985 -0.819566 1 0.5 0 1
203 1 38.2692 16.9342 0 -40.9968 96.2002 0 74.7768 329.949 -54.588 83.7864 -0.54588 0.837864 1 0.5 0 1
204 1 64.4273 62.2431 0 64.4273 -17.0229 0 -14.7696 394.712 -7.2418 30.919 -0.304931 -0.952375 1 0.5 0 1
205 1 13.4217 5.63012 0 13.4217 84.8961 0 -154.182 203.77 19.4177 30.5499 0.502618 0.864508 1 0.5 0 1
206 1 1.72766 57.6218 0 1.72766 -21.6442 0 228.29 170.17 206.698 80.701 -0.170337 0.985386 1 0.5 0 1
207 1 57.4405 62.3239 0 57.4405 62.3239 0 -1172.51 -123.43 210.657 -128.919 0.233871 -0.972268 1 0.5 0 1
208 1 8.99527 31.5496 0 8.99527 31.5496 0 503.717 -50.1694 -146.255 27.6045 -0.224606 0.97445 1 0.5 0 1
209 1 53.5579 26.2336 0 53.5579 105.5 0 121.356 1266.84 58.0155 35.5554 0.406587 0.913612 1 0.5 0 1
210 1 65.9171 60.9765 0 -13.3489 60.9765 0 -473.906 310.211 132.908 -162.934 -0.645492 0.763767 1 0.5 0 1
211 1 60.9854 41.2113 0 60.9854 41.2113 0 89.1513 -147.943 -250.48 137.836 0.32373 -0.946149 1 0.5 0 1
212 1 49.5483 22.5556 0 208.08 22.5556 0 27.3165 -419.549 -122.287 -12.9118 0.201227 0.979545 1 0.5 0 1
213 1 69.0494 63.9327 0 69.0494 63.9327 0 -45.5677 139.532 8.09274 -159.546 0.895481 0.445101 1 0.5 0 1
214 1 23.9283 6.738 0 23.9283 86.004 0 -83.8433 759.701 -88.2675 -46.9984 -0.882675 -0.469984 1 0.5 0 1
215 1 55.2294 59.254 0 55.2294 -20.012 0 -526.482 227.409 -125.823 30.0286 0.796338 -0.604852 1 0.5 0 1
216 1 14.7432 46.386 0 14.7432 125.652 0 -183.521 -131.186 172.303 -76.4248 -0.819275 0.573401 1 0.5 0 1
217 1 41.9806 62.1928 0 121.247 62.1928 0 38.8644 -75.2112 51.3854 33.8892 0.766744 0.641953 1 0.5 0 1
218 1 46.6395 47.1055 0 46.6395 47.1055 0 -269.719 261.003 301.964 104.317 -0.71797 -0.696074 1 0.5 0 1
219 1 53.6598 43.1994 0 53.6598 43.1994 0 387.072 -262.498 69.2751 -10.5137 -0.283766 -0.958894 1 0.5 0 1
220 1 55.3872 68.9499 0 55.3872 -89.5821 0 -995.365 -704.789 50.3795 -86.3823 0.503795 -0.863823 1 0.5 0 1
221 1 63.6297 7.34654 0 -15.6363 165.879 0 -484.119 842.456 -83.4858 55.0465 -0.834858 0.550465 1 0.5 0 1
222 1 33.7452 18.6228 0 33.7452 18.6228 0 1102.54 -88.4528 -8.1907 99.664 -0.081907 0.99664 1 0.5 0 1
223 1 71.6435 35.7403 0 -7.62251 35.7403 0 -536.514 -129.804 58.7547 -11.757 -0.323404 -0.946261 1 0.5 0 1
224 1 75.4797 60.4156 0 -3.7863 60.4156 0 -393.429 -715.236 -219.416 -218.941 -0.78836 -0.615215 1 0.5 0 1
225 1 17.1982 31.3016 0 96.4642 -47.9644 0 153.259 263.188 43.439 43.5679 -0.867956 0.496641 1 0.5 0 1
226 1 5.57059 73.7222 0 5.57059 -5.54381 0 -425.293 -187.761 -48.8395 70.4191 -0.287909 0.957658 1 0.5 0 1
227 1 1.11488 35.9338 0 80.3809 35.9338 0 -159.022 45.3961 22.0077 -12.4485 -0.811633 -0.584167 1 0.5 0 1
228 1 11.4816 67.8666 0 -67.7844 -11.3994 0 286.912 -821.679 13.0852 39.8969 -0.156989 -0.9876 1 0.5 0 1
229 1 51.5928 39.0275 0 51.5928 39.0275 0 319.507 -84.3716 91.383 13.0458 -1 0.000874748 1 0.5 0 1
230 1 52.1063 37.48 0 52.1063 116.746 0 -611.564 -814.525 94.7836 -33.1071 -0.22003 0.975493 1 0.5 0 1
231 1 5.4097 21.7754 0 5.4097 101.041 0 122.112 292.722 60.83 -125.233 -0.984605 0.174793 1 0.5 0 1
232 1 48.0199 24.8921 0 48.0199 -54.3739 0 236.38 -694.116 31.6696 -110.358 0.891514 0.452993 1 0.5 0 1
233 1 6.48009 44.193 0 6.48009 44.193 0 -243.818 -127.805 146.624 95.4135 -0.885047 0.465502 1 0.5 0 1
234 1 30.5541 60.5865 0 30.5541 -18.6795 0 -213.743 182.443 82.7143 23.7067 0.955467 0.295099 1 0.5 0 1
235 1 37.5023 42.0562 0 37.5023 121.322 0 -291.172 263.067 -135.852 38.5735 0.254125 0.967172 1 0.5 0 1
236 1 46.2545 21.4037 0 125.521 21.4037 0 -138.438 453.075 50.5587 -86.2776 0.505587 -0.862776 1 0.5 0 1
237 1 69.3887 69.5672 0 69.3887 -9.6988 0 -103.912 -686.717 107.904 -101.143 0.35105 -0.936357 1 0.5 0 1
238 1 71.9398 20.502 0 71.9398 99.768 0 409.186 -194.422 25.8681 20.8272 -0.65357 0.756866 1 0.5 0 1
239 1 3.18519 41.2309 0 82.4512 41.2309 0 -139.711 -112.139 200.874 -155.511 0.660999 -0.750387 1 0.5 0 1
240 1 72.8553 16.3202 0 72.8553 16.3202 0 -169.315 978.791 -114.612 -262.72 0.67438 -0.738384 1 0.5 0 1
241 1 48.1298 36.0505 0 48.1298 36.0505 0 -348.095 556.828 -52.5728 -233.689 -0.747027 0.664793 1 0.5 0 1
242 1 1.75865 62.0572 0 81.0247 -17.2088 0 388.475 -687.689 90.1229 -53.9399 0.938936 0.344091 1 0.5 0 1
243 1 7.17669 74.7238 0 -72.0893 74.7238 0 707.275 -745.388 118.873 16.9136 -0.986155 -0.165826 1 0.5 0 1
244 1 61.2446 24.4276 0 61.2446 103.694 0 -111.837 604.95 -143.403 -229.246 0.863018 -0.505174 1 0.5 0 1
245 1 56.7146 49.7247 0 56.7146 49.7247 0 39.6688 -209.532 231.833 100.627 -0.953735 0.300648 1 0.5 0 1
246 1 49.1296 39.914 0 49.1296 39.914 0 -856.631 377.744 -43.8656 107.201 -0.151964 -0.988386 1 0.5 0 1
247 1 66.9478 53.1848 0 66.9478 -26.0812 0 998.59 -973.924 -120.172 -30.0109 -0.883436 -0.468553 1 0.5 0 1
248 1 11.3227 73.623 0 -67.9433 73.623 0 -151.017 -633.082 29.864 -95.4366 0.29864 -0.954366 1 0.5 0 1
249 1 13.4853 67.0683 0 92.7513 -12.1977 0 -70.4521 -238.446 59.8823 52.8629 0.768681 -0.639633 1 0.5 0 1
250 1 12.334 0.600302 0 170.866 79.8663 0 535.755 382.935 99.8745 -5.00885 0.998745 -0.0500885 1 0.5 0 1
251 1 29.869 11.2095 0 29.869 169.741 0 692.107 24.6366 75.0868 -54.9629 0.618853 -0.785507 1 0.5 0 1
252 1 60.7104 20.4389 0 60.7104 99.7049 0 -54.0617 199.058 207.895 180.827 0.761902 0.647693 1 0.5 0 1
253 1 17.6136 47.5332 0 17.6136 47.5332 0 -474.124 -84.576 -26.1249 -132.666 -0.714381 -0.699757 1 0.5 0 1
254 1 47.5897 33.07 0 47.5897 112.336 0 794.762 544.648 -46.0362 -54.3975 0.921667 0.387983 1 0.5 0 1
255 1 1.36895 33.3578 0 80.6349 112.624 0 -222.295 430.553 -93.5035 261.964 -0.794807 0.606863 1 0.5 0 1
256 1 68.6429 41.1077 0 -10.6231 41.1077 0 -372.796 -516.418 91.7644 99.6421 0.673234 -0.739429 1 0.5 0 1
257 1 7.54094 37.369 0 7.54094 116.635 0 480.511 66.4135 10.586 -132.211 0.346 -0.938234 1 0.5 0 1
258 1 7.93388 25.5318 0 7.93388 -53.7342 0 51.1243 -335.552 82.9066 9.67072 0.583049 0.812437 1 0.5 0 1
259 1 54.8848 65.9101 0 54.8848 65.9101 0 93.7547 766.304 -60.7682 -45.59 -0.848497 -0.5292 1 0.5 0 1
260 1 68.5129 67.7196 0 147.779 -11.5464 0 446.103 141.488 -33.5326 -63.9024 0.886898 -0.461965 1 0.5 0 1
261 1 62.4585 69.4722 0 -16.8075 -9.79381 0 -372.924 14.8941 46.4689 25.6272 0.956999 0.290091 1 0.5 0 1
262 1 56.8145 58.8774 0 136.08 -20.3886 0 85.7908 -761.838 -152.361 152.102 0.894278 -0.447513 1 0.5 0 1
263 1 14.6845 21.051 0 -64.5815 -58.215 0 175.863 217.73 -53.8653 -67.9679 -0.870897 -0.491466 1 0.5 0 1
264 1 30.9178 62.8377 0 189.45 -16.4283 0 36.2002 -504.215 -23.1145 -97.2919 -0.231145 -0.972919 1 0.5 0 1
265 1 52.9262 27.8367 0 52.9262 107.103 0 -132.673 -307.291 272.522 -36.0701 0.973545 -0.228494 1 0.5 0 1
266 1 56.2251 51.3568 0 56.2251 51.3568 0 -153.175 -172.107 74.7117 124.709 0.534467 0.845189 1 0.5 0 1
267 1 72.3196 62.3052 0 -6.94636 -16.9608 0 551.115 123.943 -52.5801 18.7475 -0.4956 -0.868551 1 0.5 0 1
268 1 66.5024 59.3649 0 66.5024 59.3649 0 -116.832 29.6789 -101.161 83.7449 0.972768 0.231782 1 0.5 0 1
269 1 15.1364 53.2636 0 94.4024 53.2636 0 -469.135 -249.528 89.927 73.4893 -0.955329 0.295545 1 0.5 0 1
270 1 21.0158 69.9888 0 100.282 -9.27725 0 479.982 -443.271 -55.9412 82.8889 -0.559412 0.828889 1 0.5 0 1
271 1 65.3841 14.7121 0 65.3841 14.7121 0 -19.5447 -147.733 24.3404 49.4443 0.987534 -0.157407 1 0.5 0 1
272 1 51.1422 37.1093 0 51.1422 37.1093 0 352.317 -92.6061 -74.547 106.535 0.811164 -0.584818 1 0.5 0 1
273 1 60.0991 49.0011 0 60.0991 49.0011 0 -297.383 923.395 -75.0642 109.778 0.389743 0.920924 1 0.5 0 1
274 1 44.3582 12.6696 0 44.3582 12.6696 0 -50.0864 -149.918 98.1845 18.9683 0.981845 0.189683 1 0.5 0 1
275 1 6.56471 60.2065 0 85.8307 -19.0595 0 154.373 -296.088 43.1236 18.0293 -0.878385 0.477955 1 0.5 0 1
276 1 58.1496 43.8884 0 58.1496 43.8884 0 165.273 -297.548 -195.726 40.8782 0.529644 0.84822 1 0.5 0 1
277 1 38.768 23.4737 0 -40.498 23.4737 0 1059.58 -230.957 35.8537 23.1716 0.77314 -0.634236 1 0.5 0 1
278 1 9.90758 31.864 0 -69.3584 111.13 0 -321.174 -131.137 231.286 -43.9113 -0.90437 -0.426749 1 0.5 0 1
279 1 37.813 8.1959 0 117.079 -71.0701 0 384.487 -169.502 10.6479 -99.4315 0.106479 -0.994315 1 0.5 0 1
280 1 36.965 4.7737 0 -42.301 -74.4923 0 -480.541 250.074 -97.4394 -22.4846 -0.974394 -0.224846 1 0.5 0 1
281 1 68.2955 55.4011 0 68.2955 55.4011 0 122.668 540.729 89.0689 152.259 -0.936528 -0.350592 1 0.5 0 1
282 1 48.0945 45.7711 0 48.0945 -33.4949 0 -225.915 -311.38 96.2615 88.6324 -0.0273947 -0.999625 1 0.5 0 1
283 1 69.2563 29.7324 0 -10.0097 108.998 0 27.4593 759.053 -168.539 -60.7138 -0.124478 0.992222 1 0.5 0 1
284 1 6.53669 27.8996 0 6.53669 107.166 0 -264.831 181.328 -5.77093 -32.423 0.959209 0.282698 1 0.5 0 1
285 1 65.5385 33.1382 0 65.5385 33.1382 0 675.477 -208.943 -50.8603 25.2158 0.999973 0.00739703 1 0.5 0 1