ITEM: TIMESTEP
40000
ITEM: NUMBER OF ATOMS
4000
ITEM: BOX BOUNDS pp pp pp
0.0000000000000000e+00 7.9266000000000005e+01
0.0000000000000000e+00 7.9266000000000005e+01
-5.0000000000000000e-01 5.0000000000000000e-01
ITEM: ATOMS id type x y z xu yu zu vx vy fx fy mux muy mu radius omegaz mass
1 1 46.7063 56.3078 0 46.7063 56.3078 0 344.251 -29.076 43.4884 -51.4995 0.681168 0.732127 1 0.5 0 1
2 1 37.7292 7.66785 0 37.7292 7.66785 0 20.8539 -278.462 -4.7096 -90.284 -0.196328 -0.980538 1 0.5 0 1
3 1 38.6047 25.744 0 38.6047 25.744 0 -645.094 -777.667 69.0601 -44.5779 -0.30195 -0.953324 1 0.5 0 1
4 1 58.8606 7.73699 0 58.8606 87.003 0 -123.585 194.427 -55.6755 73.252 -0.545322 0.838227 1 0.5 0 1
5 1 50.4699 39.4785 0 50.4699 39.4785 0 -377.257 104.923 -76.4585 -35.3397 -0.313023 -0.949746 1 0.5 0 1
6 1 52.6633 20.9525 0 52.6633 20.9525 0 -572.443 390.961 35.5787 13.3636 -0.963826 -0.266534 1 0.5 0 1
7 1 62.5296 41.6401 0 62.5296 41.6401 0 911.428 545.823 4.69456 38.7768 0.965053 0.262056 1 0.5 0 1
8 1 33.217 13.5897 0 33.217 13.5897 0 -573.495 118.571 11.1506 -24.1229 -0.295713 -0.955277 1 0.5 0 1
9 1 29.3848 34.9058 0 29.3848 34.9058 0 -367.737 277.633 236.673 -124.745 0.451204 -0.892421 1 0.5 0 1
10 1 63.119 70.3503 0 63.119 70.3503 0 -85.7258 -565.995 58.8935 47.5414 0.65149 -0.758657 1 0.5 0 1
11 1 1.10342 55.1648 0 1.10342 55.1648 0 1085.17 -547.067 -147.641 34.1303 -0.880514 0.474019 1 0.5 0 1
12 1 53.3774 55.497 0 53.3774 55.497 0 -890.421 -196.772 -31.1285 96.7904 0.00129501 0.999999 1 0.5 0 1
13 1 30.3114 61.574 0 30.3114 61.574 0 549.978 377.436 -42.1573 -33.761 -0.35499 -0.93487 1 0.5 0 1
14 1 75.4836 60.4267 0 -3.7824 60.4267 0 749.757 -37.0109 29.4376 36.0777 -0.830313 -0.557297 1 0.5 0 1
15 1 53.2425 56.5159 0 53.2425 56.5159 0 147.565 -84.7263 -140.482 88.9984 -0.847812 0.530297 1 0.5 0 1
16 1 71.1429 12.307 0 -8.12311 12.307 0 -527.402 -693.378 -99.8717 5.064 -0.998717 0.05064 1 0.5 0 1
17 1 49.5228 37.996 0 49.5228 37.996 0 494.194 -467.828 82.2475 -106.711 -0.548552 0.836116 1 0.5 0 1
18 1 39.9398 38.0771 0 39.9398 38.0771 0 -639.607 -221.33 23.2149 -68.5242 0.316455 -0.948607 1 0.5 0 1
19 1 32.0985 62.5982 0 32.0985 62.5982 0 -704.676 -649.885 23.7481 44.7112 -0.399524 -0.916723 1 0.5 0 1
20 1 18.5938 49.0071 0 18.5938 49.0071 0 -337.101 -555.837 38.9789 -14.4803 0.726048 0.687644 1 0.5 0 1
21 1 54.7113 67.206 0 54.7113 -12.06 0 -401.441 90.5975 -23.2538 -78.5586 -0.284393 -0.958708 1 0.5 0 1
22 1 30.986 32.6848 0 30.986 32.6848 0 -646.302 340.279 113.534 -30.1843 0.974443 0.224637 1 0.5 0 1
23 1 34.3434 23.6614 0 34.3434 23.6614 0 953.949 402.665 -48.9625 -43.4513 -0.354519 -0.935049 1 0.5 0 1
24 1 62.4124 76.0997 0 62.4124 -3.16632 0 561.19 -77.3081 31.9651 -60.0351 0.508288 -0.861187 1 0.5 0 1
25 1 10.7366 79.1725 0 10.7366 -0.0934514 0 277.903 -129.103 -97.1969 -23.5109 -0.971969 -0.235109 1 0.5 0 1
26 1 27.9129 77.0224 0 27.9129 -2.24361 0 -621.508 191.407 -49.2128 33.1644 -0.209607 -0.977786 1 0.5 0 1
27 1 56.3242 18.0299 0 56.3242 18.0299 0 344.668 373.448 -36.9361 175.206 -0.143597 0.989636 1 0.5 0 1
28 1 31.5279 37.1322 0 31.5279 37.1322 0 358.599 -404.903 -22.2194 73.4021 -0.265132 0.964212 1 0.5 0 1
29 1 78.9252 22.2798 0 -0.340813 22.2798 0 -884.613 188.907 -4.64562 63.9086 -0.0382033 0.99927 1 0.5 0 1
30 1 41.5782 13.789 0 41.5782 93.055 0 776.055 272.195 -61.8131 94.3496 -0.0988414 0.995103 1 0.5 0 1
31 1 28.6707 56.8487 0 28.6707 56.8487 0 -697.982 159.563 -71.2395 62.9612 0.0071168 -0.999975 1 0.5 0 1
32 1 35.4524 29.1722 0 35.4524 29.1722 0 -317.795 373.9 -5.9132 22.7721 0.573867 0.818948 1 0.5 0 1
33 1 34.6752 64.1597 0 34.6752 -15.1063 0 622.2 262.677 21.7705 -18.9427 -0.538211 -0.84281 1 0.5 0 1
34 1 73.1028 36.388 0 73.1028 36.388 0 -152.806 -542.833 -26.5048 54.8601 0.909465 -0.41578 1 0.5 0 1
35 1 26.3429 77.1617 0 26.3429 77.1617 0 78.3997 -412.287 -73.3183 43.4358 -0.852144 0.523308 1 0.5 0 1
36 1 41.08 30.8433 0 41.08 30.8433 0 317.075 -347.516 38.0215 -83.1654 0.384757 -0.923018 1 0.5 0 1
37 1 66.9461 29.4719 0 66.9461 29.4719 0 -467.887 282.198 27.9113 -65.8543 0.863209 0.504846 1 0.5 0 1
38 1 14.955 27.0173 0 94.221 27.0173 0 -29.8755 654.327 -17.1974 19.4492 0.81037 0.585918 1 0.5 0 1
39 1 19.7587 21.9763 0 19.7587 21.9763 0 -454.233 697.572 36.3313 0.033939 -0.442574 -0.896732 1 0.5 0 1
40 1 77.2914 74.8679 0 -1.97458 -4.39814 0 196.539 156.407 -26.6069 -53.2807 -0.475934 -0.879481 1 0.5 0 1
41 1 58.0409 69.1083 0 58.0409 69.1083 0 -425.657 -390.99 157.463 -60.2279 0.735238 -0.67781 1 0.5 0 1
42 1 22.2538 73.1922 0 22.2538 73.1922 0 70.1076 207.239 80.8499 56.1347 -0.889241 -0.457439 1 0.5 0 1
43 1 13.9074 62.9906 0 13.9074 62.9906 0 -393.571 -178.931 -97.9204 -6.69914 -0.54627 0.837609 1 0.5 0 1
44 1 75.2356 78.0396 0 75.2356 78.0396 0 -190.329 698.948 60.5724 36.6336 -0.0187826 0.999824 1 0.5 0 1
45 1 19.1676 65.0179 0 19.1676 65.0179 0 323.091 608.09 -84.0279 7.46063 -0.974425 -0.224714 1 0.5 0 1
46 1 28.3366 16.7041 0 28.3366 16.7041 0 650.08 -328.251 -91.0839 38.857 -0.915446 0.402441 1 0.5 0 1
47 1 11.8844 10.341 0 11.8844 10.341 0 249.136 -399.611 -33.69 170.57 -0.176576 -0.984287 1 0.5 0 1
48 1 59.7095 55.6341 0 59.7095 55.6341 0 -192.732 665.401 -84.6073 -14.6378 -0.943903 -0.330224 1 0.5 0 1
49 1 68.2976 3.93323 0 68.2976 83.1992 0 332.636 -704.136 26.4583 10.6391 0.500495 0.86574 1 0.5 0 1
50 1 61.7133 30.3027 0 61.7133 30.3027 0 134.514 -83.7504 68.3195 -151.003 0.943426 -0.331584 1 0.5 0 1
51 1 17.817 15.3252 0 17.817 15.3252 0 60.1471 -13.8391 39.5432 -51.2679 -0.985139 -0.171757 1 0.5 0 1
52 1 67.7973 16.5213 0 67.7973 16.5213 0 -360.533 349.859 162.623 45.223 0.739758 0.672873 1 0.5 0 1
53 1 49.8862 58.7919 0 49.8862 58.7919 0 -35.0468 -375.683 -80.4981 -37.0069 0.476859 0.87898 1 0.5 0 1
54 1 29.526 36.1108 0 29.526 36.1108 0 19.1567 387.792 15.6663 -64.4246 0.966774 0.255632 1 0.5 0 1
55 1 0.563449 6.43089 0 79.8294 85.6969 0 815.708 -196.808 -49.3507 -61.7645 0.684604 0.728915 1 0.5 0 1
56 1 37.9046 56.5429 0 37.9046 56.5429 0 -531.705 369.418 19.1052 -132.836 0.173763 -0.984788 1 0.5 0 1
57 1 21.098 68.6773 0 21.098 68.6773 0 99.1379 -74.684 90.1057 -41.598 0.107222 0.994235 1 0.5 0 1
58 1 20.4936 14.0707 0 20.4936 14.0707 0 -320.6 341.43 -13.0896 9.94769 -0.781523 0.623877 1 0.5 0 1
59 1 51.8259 10.8766 0 51.8259 10.8766 0 435.145 402.586 0.170685 -124.765 0.639851 0.768499 1 0.5 0 1
60 1 58.3207 45.1218 0 58.3207 45.1218 0 -162.113 691.242 17.9788 -85.6205 -0.534183 -0.845369 1 0.5 0 1
61 1 51.7078 47.8718 0 51.7078 47.8718 0 637.16 -265.386 0.935944 -97.0578 0.113648 -0.993521 1 0.5 0 1
62 1 43.217 39.2063 0 43.217 39.2063 0 15.8344 -727.99 -76.3752 30.3504 -0.0661472 -0.99781 1 0.5 0 1
63 1 68.4104 65.7934 0 -10.8556 65.7934 0 -460.086 -471.215 -91.6509 60.6416 -0.919487 -0.393121 1 0.5 0 1
64 1 50.3638 34.3446 0 50.3638 34.3446 0 3.1434 67.2573 -63.1543 40.6126 0.164663 0.98635 1 0.5 0 1
65 1 67.0328 56.8617 0 67.0328 56.8617 0 -65.8326 -396.393 -29.7018 21.8453 0.0856669 0.996324 1 0.5 0 1
66 1 51.0277 67.6759 0 51.0277 67.6759 0 1134.18 301.189 25.9063 4.78796 0.996376 0.0850572 1 0.5 0 1
67 1 32.3513 16.6157 0 32.3513 16.6157 0 231.194 633.539 132.609 -41.7531 0.997913 -0.0645777 1 0.5 0 1
68 1 23.083 38.8335 0 23.083 38.8335 0 -685.768 698.221 -94.96 185.292 0.708045 0.706167 1 0.5 0 1
69 1 50.7963 74.6404 0 50.7963 74.6404 0 610.039 116.044 -2.12481 66.9316 -0.904236 0.427032 1 0.5 0 1
70 1 23.0047 62.0908 0 23.0047 62.0908 0 908.952 -941.433 48.4041 94.7041 -0.369482 0.929238 1 0.5 0 1
71 1 46.5824 44.5214 0 46.5824 44.5214 0 -90.3281 323.702 -74.18 22.4659 -0.928543 0.371226 1 0.5 0 1
72 1 21.9588 62.4258 0 21.9588 62.4258 0 -561.227 942.899 -15.434 57.322 -0.833893 0.551927 1 0.5 0 1
73 1 73.3947 37.3396 0 73.3947 37.3396 0 -121.386 326.424 120.71 15.5646 -0.464375 -0.885639 1 0.5 0 1
74 1 58.3921 68.0728 0 58.3921 68.0728 0 -313.734 41.847 45.6866 -35.35 0.999114 0.0420817 1 0.5 0 1
75 1 6.83927 37.9418 0 6.83927 37.9418 0 114.929 -1007.88 76.384 -63.9441 -0.985799 -0.167931 1 0.5 0 1
76 1 20.6132 24.3796 0 20.6132 24.3796 0 678.93 667.593 -76.0137 29.5893 -0.99928 -0.0379532 1 0.5 0 1
77 1 14.7689 10.2002 0 14.7689 10.2002 0 -379.947 49.6278 -90.4228 -98.7662 -0.323938 0.946078 1 0.5 0 1
78 1 44.6975 48.1721 0 44.6975 48.1721 0 -415.124 271.287 -37.655 -7.08034 -0.993084 -0.117406 1 0.5 0 1
79 1 56.2077 75.6624 0 56.2077 75.6624 0 -939.953 -238.595 -24.7244 96.8953 -0.247244 0.968953 1 0.5 0 1
80 1 39.4688 64.6333 0 39.4688 -14.6327 0 -166.242 24.8021 9.15418 96.5455 0.142264 -0.989829 1 0.5 0 1
81 1 5.54762 31.7338 0 84.8136 31.7338 0 577.779 -54.4192 11.1435 -6.02116 0.979572 0.201094 1 0.5 0 1
82 1 26.5843 22.4977 0 26.5843 22.4977 0 -448.238 244.348 47.9159 87.7728 0.479159 0.877728 1 0.5 0 1
83 1 37.8813 33.7607 0 37.8813 33.7607 0 101.609 -544.699 3.75405 86.2603 0.315664 0.948871 1 0.5 0 1
84 1 3.4609 39.5623 0 3.4609 39.5623 0 584.997 858.472 -64.9248 -141.705 -0.793517 0.608548 1 0.5 0 1
85 1 36.453 13.0733 0 36.453 13.0733 0 -657.111 -515.863 -56.6366 -82.4154 -0.566366 -0.824154 1 0.5 0 1
86 1 42.1745 10.9982 0 42.1745 10.9982 0 -760.401 286.995 96.9824 -81.8944 -0.546985 -0.837143 1 0.5 0 1
87 1 47.7935 32.6715 0 47.7935 32.6715 0 -657.027 -181.465 0.797415 -140.726 0.0985987 0.995127 1 0.5 0 1
88 1 61.4712 16.9293 0 61.4712 16.9293 0 227.581 -423.363 -52.8894 44.639 0.0149592 0.999888 1 0.5 0 1
89 1 21.5192 49.2759 0 21.5192 49.2759 0 -410.102 456.764 114.283 91.1332 0.151382 0.988475 1 0.5 0 1
90 1 25.5534 54.371 0 25.5534 54.371 0 371.659 -281.019 59.8448 -44.649 0.170353 -0.985383 1 0.5 0 1
91 1 16.5639 0.383235 0 16.5639 0.383235 0 331.309 708.16 -73.4108 32.8833 -0.158286 -0.987393 1 0.5 0 1
92 1 39.7946 46.4936 0 39.7946 46.4936 0 -185.505 -341.918 54.3714 -37.9939 -0.89877 -0.43842 1 0.5 0 1
93 1 14.602 50.4038 0 14.602 50.4038 0 238.407 581.647 -66.999 94.2961 -0.294125 0.955767 1 0.5 0 1
94 1 74.8899 17.9704 0 74.8899 17.9704 0 202.351 260.643 8.62199 -9.31595 0.705355 0.708854 1 0.5 0 1
95 1 61.5314 41.9301 0 61.5314 41.9301 0 -659.282 -990.891 -11.0115 29.1242 0.96604 -0.258393 1 0.5 0 1
96 1 49.7095 35.526 0 49.7095 35.526 0 691.961 -71.3648 -86.1953 -17.1571 0.956179 -0.292784 1 0.5 0 1
97 1 61.6365 33.1584 0 61.6365 33.1584 0 -24.5888 -144.615 -13.8203 41.1132 -0.349836 -0.936811 1 0.5 0 1
98 1 79.1309 69.101 0 -0.135062 69.101 0 -582.809 -654.521 -111.84 54.8874 -0.69248 0.721437 1 0.5 0 1
99 1 68.5001 24.0307 0 68.5001 24.0307 0 503.54 154.273 -11.0961 -53.5667 -0.82807 -0.560625 1 0.5 0 1
100 1 69.0753 35.3478 0 69.0753 35.3478 0 -308.323 -392.151 -20.4096 70.1373 0.999262 -0.0383997 1 0.5 0 1
101 1 48.5915 57.0942 0 48.5915 57.0942 0 65.154 -55.7977 38.6118 36.304 0.464494 -0.885576 1 0.5 0 1
102 1 15.7161 31.3746 0 15.7161 31.3746 0 238.072 -382.356 -82.5494 54.8192 -0.881937 0.471367 1 0.5 0 1
103 1 31.7783 54.0412 0 31.7783 54.0412 0 -9.20229 -184.886 -127.566 80.0625 -0.995383 -0.0959779 1 0.5 0 1
104 1 36.662 10.5725 0 36.662 89.8385 0 -155.905 365.754 56.4043 57.6724 0.89341 0.449243 1 0.5 0 1
105 1 1.32237 8.21842 0 1.32237 8.21842 0 -403.561 257.021 -64.09 -48.1302 -0.836802 -0.547506 1 0.5 0 1
106 1 46.6241 47.3244 0 46.6241 47.3244 0 595.35 -455.471 -86.8857 -2.71572 -0.995898 0.0904776 1 0.5 0 1
107 1 61.7981 22.0473 0 61.7981 22.0473 0 -302.441 -624.211 69.8879 233.059 -0.830733 0.55667 1 0.5 0 1
108 1 14.3069 5.41192 0 14.3069 84.6779 0 306.837 661.007 76.8367 -48.9755 -0.261133 0.965303 1 0.5 0 1
109 1 10.0545 46.7379 0 10.0545 46.7379 0 936.379 52.4968 -79.6593 47.7622 -0.889831 0.45629 1 0.5 0 1
110 1 6.59699 40.3318 0 6.59699 40.3318 0 359.343 54.7597 -191.066 -53.7631 -0.983192 0.182577 1 0.5 0 1
111 1 7.20748 32.6474 0 7.20748 32.6474 0 -5.66539 -119.471 -14.3432 81.2779 -0.458433 -0.888729 1 0.5 0 1
112 1 39.5323 51.7255 0 39.5323 51.7255 0 473.256 387.792 -95.7857 -73.1307 -0.0730642 -0.997327 1 0.5 0 1
113 1 63.6356 73.0033 0 -15.6304 -6.26269 0 609.615 -397.596 107.129 293.169 -0.663377 -0.748285 1 0.5 0 1
114 1 25.9463 28.0069 0 25.9463 28.0069 0 -352.824 -136.672 -24.2798 53.5315 -0.870659 0.491886 1 0.5 0 1
115 1 15.9577 3.76492 0 15.9577 3.76492 0 -452.337 417.881 68.5338 -70.3429 -0.51845 -0.855108 1 0.5 0 1
116 1 24.324 24.7669 0 24.324 24.7669 0 165.413 -202.702 -105.066 -35.9034 -0.801284 -0.598284 1 0.5 0 1
117 1 61.7854 44.9977 0 61.7854 44.9977 0 -217.582 -13.2384 73.241 -48.6273 0.9437 0.330804 1 0.5 0 1
118 1 56.8553 57.9996 0 56.8553 57.9996 0 229.958 62.4963 26.7187 27.1791 0.134174 -0.990958 1 0.5 0 1
119 1 13.5561 11.5058 0 13.5561 11.5058 0 -512.848 -378.861 218.397 -144.429 -0.770939 -0.636909 1 0.5 0 1
120 1 62.152 23.0791 0 62.152 23.0791 0 -161.676 583.549 -25.713 -33.9404 0.685008 0.728536 1 0.5 0 1
121 1 74.4908 26.8684 0 -4.77521 26.8684 0 -73.906 -448.781 -16.6225 -103.67 -0.322565 -0.946547 1 0.5 0 1
122 1 54.0586 43.1755 0 54.0586 43.1755 0 717.58 159.078 -57.6719 -38.7403 -0.932587 0.360946 1 0.5 0 1
123 1 31.9295 34.2851 0 31.9295 34.2851 0 -1345.32 438.806 186.925 -102.57 -0.847706 0.530467 1 0.5 0 1
124 1 38.5357 3.99105 0 38.5357 3.99105 0 -259.975 -11.2984 28.2368 42.386 0.999927 -0.0120827 1 0.5 0 1
125 1 27.5611 28.8959 0 27.5611 28.8959 0 -236.396 262.478 87.4209 32.8622 0.993914 -0.110161 1 0.5 0 1
126 1 62.6495 64.1359 0 62.6495 64.1359 0 -657.344 -296.226 -8.23063 -15.0057 -0.854159 0.520012 1 0.5 0 1
127 1 55.4422 69.6379 0 55.4422 69.6379 0 208.256 100.553 -41.6191 90.9277 -0.416191 0.909277 1 0.5 0 1
128 1 75.3711 55.9642 0 -3.89492 55.9642 0 -590.317 109.631 -63.2989 46.9962 -0.992784 0.119918 1 0.5 0 1
129 1 44.0745 10.6862 0 44.0745 10.6862 0 542.253 926.257 79.0474 52.447 0.311133 -0.950366 1 0.5 0 1
130 1 47.8103 75.1689 0 47.8103 -4.09713 0 733.183 -288.95 7.25055 -93.8685 0.0593719 -0.998236 1 0.5 0 1
131 1 19.9203 59.9539 0 19.9203 59.9539 0 -163.389 -337.718 20.2263 42.9812 -0.956336 0.29227 1 0.5 0 1
132 1 33.5646 2.38845 0 33.5646 81.6545 0 -484.207 885.038 41.8144 29.91 -0.978458 0.206444 1 0.5 0 1
133 1 70.483 1.59015 0 70.483 80.8561 0 62.2577 191.679 7.64551 3.04184 0.405183 0.914236 1 0.5 0 1
134 1 73.4402 60.0197 0 73.4402 60.0197 0 -438.816 435.184 -65.6368 11.7805 0.0671435 0.997743 1 0.5 0 1
135 1 78.0983 77.0856 0 78.0983 77.0856 0 475.089 163.496 -26.3411 37.6584 -0.386658 0.922223 1 0.5 0 1
136 1 6.15973 67.9636 0 6.15973 67.9636 0 912.129 158.619 70.4261 70.9941 0.704261 0.709941 1 0.5 0 1
137 1 5.89701 29.3786 0 85.163 29.3786 0 30.3142 -196.772 84.9276 33.6405 0.97605 0.217547 1 0.5 0 1
138 1 53.8077 29.7574 0 53.8077 29.7574 0 -42.1128 -93.86 3.10069 52.9867 -0.948273 0.317456 1 0.5 0 1
139 1 52.9007 10.5192 0 52.9007 10.5192 0 113.907 401.288 -66.1788 -48.9054 -0.922103 0.386945 1 0.5 0 1
140 1 27.8982 23.8747 0 27.8982 23.8747 0 -792.851 96.7686 -14.8684 -118.556 0.383078 -0.923716 1 0.5 0 1
141 1 47.7218 42.8259 0 47.7218 42.8259 0 -100.615 343.816 -55.3557 -59.2689 -0.960128 0.27956 1 0.5 0 1
142 1 32.9423 48.7238 0 32.9423 48.7238 0 654.42 -148.013 -52.4483 101.411 0.0601187 0.998191 1 0.5 0 1
143 1 20.276 60.9883 0 20.276 60.9883 0 -148.048 -199.16 28.9362 19.9735 0.423665 0.905819 1 0.5 0 1
144 1 58.2464 26.0833 0 58.2464 26.0833 0 -20.158 -256.356 -121.556 54.8056 0.492797 -0.870144 1 0.5 0 1
145 1 76.4038 54.2004 0 76.4038 54.2004 0 -583.38 428.286 -6.6482 95.9035 0.292535 0.956255 1 0.5 0 1
146 1 35.2028 12.9662 0 35.2028 12.9662 0 -60.4134 -182.487 -52.8528 -32.3844 -0.792677 -0.609641 1 0.5 0 1
147 1 76.4293 35.7114 0 76.4293 35.7114 0 160.869 467.81 59.0526 -49.7724 0.110209 -0.993908 1 0.5 0 1
148 1 75.2601 27.658 0 75.2601 27.658 0 -595.529 -725.289 -15.8315 -86.7833 -0.254889 -0.96697 1 0.5 0 1
149 1 53.5883 11.7571 0 53.5883 91.0231 0 69.115 -101.496 25.878 142.224 0.0254413 0.999676 1 0.5 0 1
150 1 13.3122 22.8534 0 13.3122 22.8534 0 211.934 365.175 33.1068 -63.5735 -0.6442 0.764857 1 0.5 0 1
151 1 61.537 6.69607 0 61.537 6.69607 0 125.656 -247.538 52.9808 -25.4024 0.913157 -0.407607 1 0.5 0 1
152 1 6.39285 8.22036 0 6.39285 87.4864 0 -297.392 337.817 -112.433 -54.5142 0.0408679 0.999165 1 0.5 0 1
153 1 53.5314 61.419 0 53.5314 61.419 0 347.441 -477.815 99.1835 122.269 0.97406 0.22629 1 0.5 0 1
154 1 74.9552 64.5986 0 -4.31084 64.5986 0 -376.599 407.745 -6.78893 -40.12 -0.398641 -0.917107 1 0.5 0 1
155 1 77.8251 4.44299 0 -1.44085 4.44299 0 -271.528 416.102 -98.6803 23.9402 -0.98322 0.182423 1 0.5 0 1
156 1 73.1581 43.458 0 73.1581 43.458 0 476.897 -186.072 -24.1789 43.9402 0.682175 0.731189 1 0.5 0 1
157 1 6.14153 15.5853 0 6.14153 15.5853 0 432.697 -191.626 -2.4858 -41.1421 -0.257852 -0.966184 1 0.5 0 1
158 1 10.7133 34.967 0 10.7133 34.967 0 -263.471 664.561 -18.1381 12.5231 -0.984502 0.175376 1 0.5 0 1
159 1 73.6359 55.971 0 73.6359 55.971 0 -227.68 337.769 -77.5404 68.0525 0.690465 -0.723365 1 0.5 0 1
160 1 21.7162 39.458 0 21.7162 39.458 0 -308.056 -435.089 11.7503 -102.597 0.0817054 -0.996657 1 0.5 0 1
161 1 10.4745 32.8416 0 10.4745 32.8416 0 -633.794 -84.3321 -7.5255 97.6414 -0.368537 0.929613 1 0.5 0 1
162 1 16.7975 63.4597 0 16.7975 63.4597 0 257.596 451.718 55.4246 45.5173 -0.94077 -0.339045 1 0.5 0 1
163 1 53.7266 46.4306 0 53.7266 46.4306 0 -54.9243 -167.152 8.05381 -132.636 0.834098 -0.551616 1 0.5 0 1
164 1 27.3425 63.9131 0 27.3425 63.9131 0 -38.159 198.415 -46.9599 -84.6235 -0.142651 -0.989773 1 0.5 0 1
165 1 39.654 50.6235 0 39.654 50.6235 0 353.213 499.922 2.69844 69.3262 -0.53167 -0.846951 1 0.5 0 1
166 1 62.5076 17.0981 0 62.5076 17.0981 0 185.973 -11.9191 -1.73372 16.9988 -0.989195 0.146608 1 0.5 0 1
167 1 26.4804 29.0863 0 26.4804 29.0863 0 716.576 -694.091 39.0408 -8.76073 0.785754 0.61854 1 0.5 0 1
168 1 50.469 56.3512 0 50.469 56.3512 0 52.1647 262.314 -48.9857 -8.59747 0.589481 0.807782 1 0.5 0 1
169 1 41.0554 56.5455 0 41.0554 56.5455 0 -372.833 -318.852 -18.6065 -49.9029 -0.717576 0.69648 1 0.5 0 1
170 1 77.4421 53.9787 0 77.4421 53.9787 0 -234.752 433.387 22.6707 63.2842 0.32101 0.947076 1 0.5 0 1
171 1 76.1317 59.6007 0 76.1317 59.6007 0 369.153 350.884 -70.1657 128.606 0.17362 -0.984813 1 0.5 0 1
172 1 45.7359 72.5251 0 45.7359 -6.74094 0 -184.221 43.3337 -11.1007 -90.4249 -0.828413 -0.560118 1 0.5 0 1
173 1 50.2233 41.939 0 50.2233 41.939 0 245.369 47.0709 -1.14321 17.2339 0.202215 -0.979341 1 0.5 0 1
174 1 27.1726 26.2959 0 27.1726 26.2959 0 348.807 348.643 -97.4346 22.5055 -0.974346 0.225055 1 0.5 0 1
175 1 16.5975 7.25804 0 16.5975 7.25804 0 91.1249 331.121 -27.3966 -0.78525 0.998877 -0.0473846 1 0.5 0 1
176 1 43.4323 55.5193 0 43.4323 55.5193 0 -89.7843 -792.569 -93.0978 36.5075 -0.930978 0.365075 1 0.5 0 1
177 1 46.9778 63.1751 0 46.9778 63.1751 0 140.159 -336.904 -62.3394 -14.7957 -0.993053 -0.11767 1 0.5 0 1
178 1 78.5696 78.0891 0 -0.696388 78.0891 0 -276.298 346.886 78.7099 -82.2832 -0.52419 0.851602 1 0.5 0 1
179 1 24.5582 69.1689 0 24.5582 -10.0971 0 558.543 235.116 146.53 -25.4133 -0.866957 -0.498383 1 0.5 0 1
180 1 71.3559 36.8448 0 71.3559 36.8448 0 -616.54 -89.3107 -16.4928 -109.149 0.965429 0.260667 1 0.5 0 1
181 1 59.736 17.8385 0 59.736 17.8385 0 99.1505 -188.857 20.6308 62.2519 0.123124 0.992391 1 0.5 0 1
182 1 45.652 10.9515 0 45.652 90.2175 0 357.434 -443.254 1.28786 50.4157 0.30473 0.952439 1 0.5 0 1
183 1 26.9339 19.6678 0 26.9339 19.6678 0 -318.982 -456.425 -73.2637 9.86436 0.368498 -0.929628 1 0.5 0 1
184 1 67.292 33.3114 0 67.292 33.3114 0 -272.415 -457.5 34.8699 15.0055 -0.86131 0.50808 1 0.5 0 1
185 1 55.9009 51.9886 0 55.9009 51.9886 0 -86.9641 -352.407 -9.68372 22.0262 0.984123 0.177485 1 0.5 0 1
186 1 40.1324 30.0487 0 40.1324 30.0487 0 61.1896 -343.832 -47.0385 72.7091 0.250761 0.968049 1 0.5 0 1
187 1 10.7753 76.935 0 10.7753 76.935 0 -522.957 -11.3418 -99.7231 7.43718 -0.997231 0.0743718 1 0.5 0 1
188 1 72.7014 67.0793 0 72.7014 67.0793 0 708.055 194.922 -43.9614 -81.6627 -0.122924 -0.992416 1 0.5 0 1
189 1 1.67981 32.9923 0 1.67981 32.9923 0 -374.802 -276.391 -32.7203 -81.271 -0.378665 -0.925534 1 0.5 0 1
190 1 23.3801 53.9317 0 23.3801 53.9317 0 430.105 407.415 -60.0985 -0.549533 -0.920198 -0.391452 1 0.5 0 1
191 1 75.7977 1.37994 0 75.7977 1.37994 0 -97.9534 -808.91 7.1464 63.3947 -0.422558 -0.906336 1 0.5 0 1
192 1 57.7138 21.1448 0 57.7138 21.1448 0 756.818 6.87605 32.9988 20.7956 0.995895 0.0905128 1 0.5 0 1
193 1 34.2647 9.89199 0 34.2647 9.89199 0 123.047 394.005 -10.975 -5.02857 -0.998664 -0.0516797 1 0.5 0 1
194 1 57.3249 55.2175 0 57.3249 55.2175 0 775.135 32.7449 -163.974 -151.85 -0.684603 0.728916 1 0.5 0 1
195 1 22.5993 23.5547 0 22.5993 23.5547 0 359.855 -217.112 -46.5669 89.9844 -0.364957 0.931024 1 0.5 0 1
196 1 63.1472 35.5802 0 63.1472 35.5802 0 582.624 326.037 50.6858 -70.2191 -0.355114 -0.934823 1 0.5 0 1
197 1 9.62557 41.9816 0 9.62557 41.9816 0 104.811 460.863 142.377 74.4154 0.211485 0.977381 1 0.5 0 1
198 1 69.6065 37.2913 0 69.6065 37.2913 0 -349.86 139.978 -174.478 113.629 0.195199 -0.980764 1 0.5 0 1
199 1 30.5736 16.2497 0 30.5736 16.2497 0 672.403 277.529 28.3445 17.2471 -0.367162 0.930157 1 0.5 0 1
200 1 3.22496 47.7314 0 3.22496 47.7314 0 32.5813 613.163 2.13299 -129.483 0.725995 0.6877 1 0.5 0 1
201 1 36.0575 62.7637 0 36.0575 -16.5023 0 -312.574 -14.3349 -13.7523 -56.9148 -0.209943 -0.977714 1 0.5 0 1
202 1 72.987 22.6298 0 -6.27905 22.6298 0 -106.967 -355.06 -54.5489 47.1999 -0.973692 0.227869 1 0.5 0 1
203 1 25.8442 53.3523 0 25.8442 53.3523 0 368.999 308.828 -78.8684 -45.3647 -0.982136 0.188172 1 0.5 0 1
204 1 8.41125 14.646 0 8.41125 14.646 0 391.675 -285.703 139.708 30.0029 0.539605 0.841918 1 0.5 0 1
205 1 35.7769 61.2051 0 35.7769 61.2051 0 812.806 -399.145 -54.5966 -21.9361 -0.956879 0.290487 1 0.5 0 1
206 1 16.9119 8.24589 0 16.9119 8.24589 0 -132.803 -272.878 -6.25055 -23.3572 -0.379714 -0.925104 1 0.5 0 1
207 1 24.7203 45.3048 0 24.7203 45.3048 0 591.117 115.302 -19.9909 -57.4395 -0.687561 0.726126 1 0.5 0 1
208 1 62.9946 63.1486 0 62.9946 63.1486 0 349.51 -229.96 -7.49876 94.5901 -0.223 0.974819 1 0.5 0 1
209 1 63.9631 18.6394 0 63.9631 18.6394 0 832.86 -47.8932 -11.3676 -1.29438 0.296017 0.955183 1 0.5 0 1
210 1 36.7011 5.91326 0 36.7011 85.1793 0 1003.63 -74.8693 -69.1421 -58.8259 -0.997476 0.0709998 1 0.5 0 1
211 1 63.888 34.7729 0 63.888 34.7729 0 -315.64 477.961 -92.0087 -79.8768 -0.774178 0.632968 1 0.5 0 1
212 1 68.5083 75.1915 0 68.5083 -4.07446 0 444.147 -89.014 9.60512 -48.4624 0.754047 -0.65682 1 0.5 0 1
213 1 16.6068 60.6487 0 16.6068 60.6487 0 -206.892 -125.971 68.7035 -25.8084 0.99998 0.00630944 1 0.5 0 1
214 1 43.6902 68.8106 0 43.6902 68.8106 0 -974.856 -85.2345 -39.9551 1.50526 0.798999 0.601333 1 0.5 0 1
215 1 0.702 69.6968 0 0.702 -9.56925 0 -217.459 514.56 60.1994 -31.9877 -0.103858 -0.994592 1 0.5 0 1
216 1 24.9349 1.37563 0 24.9349 80.6416 0 -329.432 349.418 -85.5573 65.2506 -0.793557 0.608496 1 0.5 0 1
217 1 51.4313 37.8787 0 51.4313 37.8787 0 132.169 -230.653 -88.8235 14.5552 -0.946287 -0.323327 1 0.5 0 1
218 1 14.4424 32.768 0 14.4424 32.768 0 -4.72725 -411.734 12.0044 -32.5693 0.867112 0.498113 1 0.5 0 1
219 1 45.537 52.0641 0 45.537 52.0641 0 -900.899 -502.057 6.0483 -115.483 0.56091 -0.827877 1 0.5 0 1
220 1 52.227 14.6699 0 52.227 14.6699 0 -440.035 635.592 35.7357 -72.2728 0.945028 -0.326989 1 0.5 0 1
221 1 55.5764 32.4033 0 55.5764 32.4033 0 54.9732 -355.86 -68.3872 -27.4712 -0.511986 0.858994 1 0.5 0 1
222 1 41.5499 8.87577 0 41.5499 8.87577 0 35.6917 254.113 -82.3792 71.9737 -0.227986 -0.973664 1 0.5 0 1
223 1 7.79787 29.8414 0 7.79787 29.8414 0 578.404 -626.906 -51.1373 77.7359 -0.315291 0.948995 1 0.5 0 1
224 1 75.2413 63.578 0 -4.02471 63.578 0 -317.968 -276.47 -49.4013 -103.703 -0.992425 0.122854 1 0.5 0 1
225 1 76.2969 18.0476 0 76.2969 18.0476 0 179.873 -315.204 -55.6125 -66.2574 -0.335029 -0.942208 1 0.5 0 1
226 1 47.8616 35.924 0 47.8616 35.924 0 -20.6384 785.888 106.05 34.8158 -0.323848 -0.946109 1 0.5 0 1
227 1 54.6873 13.1107 0 54.6873 13.1107 0 -160.993 163.705 -145.816 -103.45 0.94831 0.317344 1 0.5 0 1
228 1 27.0667 66.7573 0 27.0667 66.7573 0 171.458 386.705 151.089 59.9009 0.0467906 0.998905 1 0.5 0 1
229 1 53.1712 28.9218 0 53.1712 28.9218 0 735.484 129.523 8.8495 -39.1521 0.934451 0.356093 1 0.5 0 1
230 1 71.8132 9.50254 0 71.8132 88.7685 0 155.996 604.571 -103.538 23.2118 -0.677782 0.735263 1 0.5 0 1
231 1 27.104 46.9418 0 27.104 46.9418 0 -147.537 -53.2929 134.315 -122.221 0.999649 -0.0265116 1 0.5 0 1
232 1 38.2105 75.22 0 38.2105 -4.04603 0 372.169 -664.96 44.8197 -111.614 0.147571 -0.989052 1 0.5 0 1
233 1 59.4226 49.7532 0 59.4226 49.7532 0 420.911 163.048 -57.9568 -19.2985 -0.743393 -0.668855 1 0.5 0 1
234 1 51.6375 76.5283 0 51.6375 -2.73768 0 378.811 -515.022 19.2097 26.0031 -0.867244 -0.497883 1 0.5 0 1
235 1 15.7982 63.5949 0 15.7982 63.5949 0 -379.23 226.86 -36.4075 20.6514 -0.511251 0.859432 1 0.5 0 1
236 1 63.1417 65.0361 0 63.1417 65.0361 0 -466.139 -31.25 96.2943 5.51023 0.999982 -0.00603557 1 0.5 0 1
237 1 28.1666 31.4552 0 28.1666 31.4552 0 25.861 122.31 -21.7821 -30.4008 0.394271 0.918994 1 0.5 0 1
238 1 56.24 58.8086 0 56.24 58.8086 0 314.839 744.714 -3.98609 -26.0493 -0.00649536 -0.999979 1 0.5 0 1
239 1 4.02286 20.8342 0 83.2889 20.8342 0 -95.7463 143.826 81.9083 47.2845 0.619852 0.784719 1 0.5 0 1
240 1 8.70101 29.3288 0 8.70101 29.3288 0 -612.302 -642.423 44.3132 60.0086 0.955338 0.295516 1 0.5 0 1
241 1 66.3853 73.8278 0 66.3853 73.8278 0 552.804 892.097 -58.93 -17.2766 -0.999952 0.0098025 1 0.5 0 1
242 1 62.2978 74.1677 0 62.2978 -5.09833 0 -178.913 137.095 -127.353 -114.744 0.267818 -0.96347 1 0.5 0 1
243 1 19.4231 66.0505 0 19.4231 66.0505 0 235.626 220.325 179.534 -19.2499 -0.999838 0.0180189 1 0.5 0 1
244 1 55.803 41.585 0 55.803 41.585 0 -90.8373 144.456 -37.0085 -35.1368 -0.999997 0.00263187 1 0.5 0 1
245 1 48.0769 29.7107 0 48.0769 29.7107 0 307.54 -75.5488 -28.3666 -16.0797 0.460537 0.887641 1 0.5 0 1
246 1 20.8712 32.9959 0 20.8712 32.9959 0 593.352 769.884 -66.3365 5.54115 0.607796 -0.794093 1 0.5 0 1
247 1 62.5819 73.1494 0 62.5819 -6.11657 0 -228.602 -100.604 -98.3525 19.4122 -0.147126 -0.989118 1 0.5 0 1
248 1 2.79301 2.02782 0 2.79301 81.2938 0 287.338 273.867 -80.7105 15.2297 -0.973768 0.227544 1 0.5 0 1
249 1 38.2492 15.4809 0 38.2492 15.4809 0 187.888 -438.947 99.6718 -8.09509 0.996718 -0.0809509 1 0.5 0 1
250 1 3.07012 26.7887 0 82.3361 26.7887 0 -584.471 -58.3277 125.989 -84.2688 0.848228 -0.529632 1 0.5 0 1
251 1 26.9053 0.525826 0 26.9053 79.7918 0 248.284 -193.824 -29.1681 4.36204 0.82853 0.559945 1 0.5 0 1
252 1 19.4394 59.0331 0 19.4394 59.0331 0 -866.3 806.34 -239.221 5.39226 -0.522987 0.852341 1 0.5 0 1
253 1 27.7479 30.481 0 27.7479 30.481 0 3.68941 -14.6982 -66.2094 40.5135 -0.890311 0.455353 1 0.5 0 1
254 1 40.0401 47.5056 0 40.0401 47.5056 0 -288.6 403.898 -65.167 24.8754 -0.69597 0.718071 1 0.5 0 1
255 1 4.56876 74.2338 0 83.8348 74.2338 0 -419.479 178.479 8.19759 76.665 0.32989 0.944019 1 0.5 0 1
256 1 75.5566 32.7267 0 -3.70943 32.7267 0 478.231 389.674 -69.7714 -83.9198 -0.806502 0.591231 1 0.5 0 1
257 1 38.1933 76.653 0 38.1933 76.653 0 -289.476 -950.334 18.9908 -7.78427 0.220406 0.975408 1 0.5 0 1
258 1 12.9591 23.7729 0 12.9591 23.7729 0 159.171 -56.7349 -28.7034 70.5024 0.0885132 -0.996075 1 0.5 0 1
259 1 10.9726 10.9284 0 90.2386 10.9284 0 555.134 -380.741 -73.8643 7.41218 0.594416 0.804158 1 0.5 0 1
260 1 76.1196 51.3864 0 76.1196 51.3864 0 -472.805 -197.356 -55.0904 -38.0013 0.981191 0.193038 1 0.5 0 1
261 1 13.9345 36.0262 0 13.9345 36.0262 0 -178.082 -221.569 -15.0699 -58.8084 -0.429111 -0.903252 1 0.5 0 1
262 1 11.8105 15.1659 0 91.0765 15.1659 0 630.146 -156.459 14.0937 15.3635 0.991544 0.129774 1 0.5 0 1
263 1 9.24037 8.6377 0 9.24037 8.6377 0 -10.3486 176.301 1.20423 -8.44871 0.280412 -0.95988 1 0.5 0 1
264 1 10.8527 21.7211 0 90.1187 21.7211 0 176.726 -272.449 -95.0753 -39.2326 0.691553 0.722325 1 0.5 0 1
265 1 24.3966 73.0776 0 24.3966 73.0776 0 -14.1632 315.557 -16.6611 80.5067 -0.00964626 0.999953 1 0.5 0 1
266 1 28.1207 69.3093 0 28.1207 69.3093 0 118.626 133.652 20.4693 -91.2575 0.977638 -0.210295 1 0.5 0 1
267 1 15.4986 17.9692 0 15.4986 17.9692 0 573.502 498.046 90.6313 -49.7454 -0.434974 -0.900443 1 0.5 0 1
268 1 49.8452 77.6591 0 49.8452 77.6591 0 -455.577 -132.759 11.819 56.9266 0.959704 0.281013 1 0.5 0 1
269 1 15.6556 28.7721 0 94.9216 28.7721 0 976.281 -585.144 -33.9612 38.5631 0.955666 -0.294453 1 0.5 0 1
270 1 6.40057 9.24536 0 85.6666 9.24536 0 -610.58 461.018 124.648 -123.95 0.960111 0.27962 1 0.5 0 1
271 1 28.9234 58.9401 0 28.9234 58.9401 0 -374.879 -433.664 103.373 -39.2694 0.981296 -0.192506 1 0.5 0 1
272 1 55.3775 23.5814 0 55.3775 23.5814 0 -381.388 -160.177 -32.9563 -37.0629 0.806238 0.591592 1 0.5 0 1
273 1 35.6979 34.7445 0 35.6979 34.7445 0 -127.258 887.231 -30.594 53.8969 -0.0188942 0.999821 1 0.5 0 1
274 1 34.2266 15.2739 0 34.2266 15.2739 0 88.0577 655.472 4.91987 -99.8789 0.0491987 -0.998789 1 0.5 0 1
275 1 30.165 3.62663 0 30.165 3.62663 0 -153.578 499.922 6.16445 -25.7065 0.924527 -0.381117 1 0.5 0 1
276 1 51.2157 29.5992 0 51.2157 29.5992 0 -123.14 -147.809 74.3383 -30.9453 0.335526 0.942031 1 0.5 0 1
277 1 77.2931 45.722 0 -1.97295 45.722 0 -456.144 116.35 -118.672 -7.53431 -0.934127 -0.356941 1 0.5 0 1
278 1 10.659 41.8094 0 10.659 41.8094 0 -390.904 -166.545 -29.1738 -27.9676 -0.491505 0.870875 1 0.5 0 1
279 1 67.5935 24.5865 0 67.5935 24.5865 0 172.953 -660.362 37.8565 92.5198 0.481202 0.87661 1 0.5 0 1
280 1 71.2485 7.94503 0 71.2485 7.94503 0 -147.173 -342.964 77.904 -1.03977 0.8619 -0.507078 1 0.5 0 1
281 1 48.6646 37.4333 0 48.6646 37.4333 0 284.561 -626.615 -107.785 6.99817 -0.0190476 0.999819 1 0.5 0 1
282 1 25.219 32.4546 0 25.219 32.4546 0 -512.065 -263.063 -23.213 -104.389 0.591556 -0.806264 1 0.5 0 1
283 1 15.3488 67.9352 0 15.3488 67.9352 0 -146.275 -71.4943 -204.497 -31.1057 -0.666516 0.745491 1 0.5 0 1
284 1 15.387 75.6922 0 15.387 75.6922 0 237.265 1070.67 -76.7553 64.0985 -0.767553 0.640985 1 0.5 0 1
285 1 1.347 41.5889 0 80.613 41.5889 0 -963.372 -782.089 -157.683 -26.2366 0.259737 -0.965679 1 0.5 0 1
286 1 25.9605 46.7513 0 25.9605 46.7513 0 -312.544 471.609 38.6519 -80.7581 -0.598832 0.800875 1 0.5 0 1