ITEM: TIMESTEP
340000
ITEM: NUMBER OF ATOMS
4000
ITEM: BOX BOUNDS pp pp pp
0.0000000000000000e+00 7.9266000000000005e+01
0.0000000000000000e+00 7.9266000000000005e+01
-5.0000000000000000e-01 5.0000000000000000e-01
ITEM: ATOMS id type x y z xu yu zu vx vy fx fy mux muy mu radius omegaz mass
1 1 1.61387 64.3666 0 80.8799 64.3666 0 287.431 177.994 -207.327 -166.355 -0.999882 0.0153726 1 0.5 0 1
2 1 60.3182 17.9071 0 60.3182 17.9071 0 -306.091 -49.2506 115.422 80.4095 0.926077 0.377334 1 0.5 0 1
3 1 15.0481 35.5837 0 15.0481 -43.6823 0 -231.892 221.526 -163.104 -54.2735 0.11189 0.993721 1 0.5 0 1
4 1 20.8535 14.0962 0 20.8535 14.0962 0 -239.213 -263.374 -78.9133 -61.4222 -0.789133 -0.614222 1 0.5 0 1
5 1 2.57135 31.6373 0 2.57135 31.6373 0 326.645 -465.955 -17.1477 80.4127 -0.440297 0.897852 1 0.5 0 1
6 1 69.4869 28.8682 0 -9.77913 28.8682 0 -470.014 -546.908 -11.711 172.514 -0.941683 0.336502 1 0.5 0 1
7 1 66.7009 49.1677 0 66.7009 49.1677 0 -764.376 -49.5543 -9.76384 53.8372 0.578734 0.815516 1 0.5 0 1
8 1 15.6573 38.4445 0 15.6573 -40.8215 0 300.2 -540.25 29.3932 133.702 -0.888111 -0.459629 1 0.5 0 1
9 1 68.1304 26.6418 0 68.1304 26.6418 0 347.484 -114.41 -162.855 39.5648 -0.361759 -0.932272 1 0.5 0 1
10 1 19.4255 54.6083 0 19.4255 54.6083 0 -312.044 -307.531 19.6167 -22.7005 -0.129582 -0.991569 1 0.5 0 1
11 1 0.517737 10.1513 0 -78.7483 10.1513 0 155.077 -11.2277 39.7726 12.4216 -0.634499 0.772924 1 0.5 0 1
12 1 0.597095 22.866 0 79.8631 102.132 0 -18.1193 -951.754 -45.1923 165.371 -0.995606 -0.0936372 1 0.5 0 1
13 1 75.7221 69.0982 0 75.7221 -10.1678 0 -653.032 -75.5953 101.726 -73.1438 -0.887003 0.461763 1 0.5 0 1
14 1 24.2219 45.2133 0 -134.31 45.2133 0 -756.3 301.825 -34.4845 25.2938 -0.999992 0.00392747 1 0.5 0 1
15 1 10.2517 34.1998 0 10.2517 34.1998 0 -432.05 214.863 20.2284 -193.432 -0.888401 0.459069 1 0.5 0 1
16 1 15.3364 49.6873 0 -63.9296 -29.5787 0 -113.407 77.3657 -80.4671 13.8803 -0.66147 0.749972 1 0.5 0 1
17 1 40.5203 41.0729 0 119.786 120.339 0 -425.879 184.035 -93.3429 51.495 0.461374 0.887206 1 0.5 0 1
18 1 27.3263 31.6028 0 27.3263 31.6028 0 -115.999 676.8 -32.9754 -94.4067 -0.329754 -0.944067 1 0.5 0 1
19 1 3.84956 41.197 0 3.84956 41.197 0 117.301 -771.467 -157.795 -136.596 0.908774 0.417288 1 0.5 0 1
20 1 14.2761 56.6029 0 14.2761 56.6029 0 -50.8998 -814.049 -100.165 100.161 0.903954 -0.42763 1 0.5 0 1
21 1 3.66458 28.3638 0 3.66458 28.3638 0 -235.641 45.0854 32.2184 22.909 0.316515 0.948588 1 0.5 0 1
22 1 2.08339 21.5758 0 81.3494 21.5758 0 -318.518 -71.1235 22.6815 113.791 -0.924865 0.380296 1 0.5 0 1
23 1 37.9411 47.5923 0 117.207 47.5923 0 0.279327 545.749 40.7317 -24.9524 0.832791 0.553587 1 0.5 0 1
24 1 65.564 57.054 0 65.564 -22.212 0 -356.98 -665.982 74.9068 172.022 0.953531 -0.301294 1 0.5 0 1
25 1 47.829 28.8496 0 -31.437 -50.4164 0 351.063 533.442 -29.2472 -24.8481 0.600499 -0.799626 1 0.5 0 1
26 1 52.0074 56.9349 0 52.0074 -101.597 0 321.392 216.235 14.7334 -139.06 0.99786 0.065391 1 0.5 0 1
27 1 74.4784 17.9129 0 -4.78761 97.1789 0 207.468 -149.625 241.662 -58.9722 -0.863401 0.504519 1 0.5 0 1
28 1 59.3114 15.4027 0 59.3114 94.6687 0 368.428 481.771 -119.398 -82.0136 0.979813 -0.199916 1 0.5 0 1
29 1 73.8065 38.0206 0 -5.45953 38.0206 0 83.1243 348.462 -264.301 -46.5121 -0.823291 0.56762 1 0.5 0 1
30 1 64.6886 14.8287 0 64.6886 94.0947 0 -408.853 -135.341 32.1586 62.7061 0.316731 0.948515 1 0.5 0 1
31 1 74.4193 26.6415 0 -4.84675 26.6415 0 -283.523 -335.517 162.29 189.436 -0.382061 0.924137 1 0.5 0 1
32 1 3.09722 15.3323 0 3.09722 15.3323 0 429.21 0.734735 -130.952 155.434 0.168205 0.985752 1 0.5 0 1
33 1 64.0741 58.3885 0 64.0741 -20.8775 0 86.1437 -177.503 77.8893 75.7791 0.64867 -0.76107 1 0.5 0 1
34 1 5.47001 44.4669 0 84.736 44.4669 0 317.957 -689.21 -53.1108 17.5012 0.876577 0.481262 1 0.5 0 1
35 1 38.728 37.9985 0 -40.538 37.9985 0 127.476 54.6505 46.3006 -50.1973 0.900992 -0.433837 1 0.5 0 1
36 1 59.398 58.2134 0 59.398 -21.0526 0 -118.301 -326.496 37.4796 137.671 0.270107 0.96283 1 0.5 0 1
37 1 69.4734 41.9452 0 69.4734 41.9452 0 24.4486 -736.274 190.47 342.107 -0.929486 0.368857 1 0.5 0 1
38 1 69.9884 11.5816 0 149.254 90.8476 0 17.2912 388.312 55.1459 -29.9469 0.975014 0.222143 1 0.5 0 1
39 1 9.68144 22.5846 0 88.9474 -56.6814 0 888.804 -661.092 -83.2439 -13.4986 -0.898064 0.439864 1 0.5 0 1
40 1 56.674 17.273 0 -22.592 96.539 0 -998.462 -179.413 -22.6431 102.957 0.126789 0.99193 1 0.5 0 1
41 1 68.1682 52.4334 0 68.1682 52.4334 0 -384.533 142.535 -1.33956 -151.697 0.406784 0.913524 1 0.5 0 1
42 1 74.2333 59.7746 0 -5.03265 59.7746 0 398.836 159.575 50.8111 9.05359 -0.0381497 -0.999272 1 0.5 0 1
43 1 1.24159 15.6432 0 -78.0244 94.9092 0 -994.252 617.491 -7.58115 -85.5528 -0.247328 0.968932 1 0.5 0 1
44 1 64.7673 21.014 0 64.7673 100.28 0 -616.623 641.48 396.332 -200.055 -0.891708 0.452612 1 0.5 0 1
45 1 13.0693 1.0764 0 13.0693 -78.1896 0 41.2395 710.715 -81.5217 -55.5626 -0.771129 -0.636679 1 0.5 0 1
46 1 6.43959 41.1831 0 6.43959 41.1831 0 105.299 -458.9 68.3472 264.828 -0.511594 0.859227 1 0.5 0 1
47 1 57.5636 61.3404 0 57.5636 -17.9256 0 235.575 -471.656 -64.4162 -101.206 0.0102059 -0.999948 1 0.5 0 1
48 1 11.1429 46.3119 0 11.1429 46.3119 0 104.236 3.82325 135.656 -45.4345 -0.978528 0.206113 1 0.5 0 1
49 1 32.599 25.5204 0 32.599 104.786 0 154.627 -622.883 -99.9984 -0.569831 -0.999984 -0.00569831 1 0.5 0 1
50 1 7.67506 7.16635 0 7.67506 7.16635 0 -116.175 200.088 -57.6665 153.8 -0.819198 -0.57351 1 0.5 0 1
51 1 8.60254 4.03738 0 -70.6635 4.03738 0 519.317 84.3991 -85.4848 -51.8878 -0.854848 -0.518878 1 0.5 0 1
52 1 3.72097 32.9814 0 82.987 32.9814 0 -463.85 987.694 199.785 -0.14235 -0.975845 0.218464 1 0.5 0 1
53 1 11.0721 54.541 0 11.0721 133.807 0 -198.96 -814.412 183.58 181.848 -0.999901 -0.0141015 1 0.5 0 1
54 1 52.8039 29.3765 0 52.8039 29.3765 0 -1007.68 575.293 45.5601 33.9739 -0.523865 0.851801 1 0.5 0 1
55 1 18.6104 43.1058 0 97.8764 122.372 0 398.032 429.647 -16.7045 119.855 -0.853483 -0.52112 1 0.5 0 1
56 1 40.6186 37.546 0 40.6186 37.546 0 10.1297 -561.594 -114.832 57.7436 0.98813 -0.153619 1 0.5 0 1
57 1 13.861 26.0298 0 13.861 105.296 0 -692.621 173.893 75.0567 47.4791 -0.975622 0.219457 1 0.5 0 1
58 1 67.3736 27.3325 0 -11.8924 27.3325 0 31.3958 407.936 41.7089 18.4542 -0.532082 -0.846693 1 0.5 0 1
59 1 51.823 33.5554 0 51.823 33.5554 0 146.782 -240.491 82.2414 -119.812 -0.87786 -0.478917 1 0.5 0 1
60 1 56.0232 40.2936 0 56.0232 40.2936 0 230.908 -148.112 206.137 -77.588 0.974626 -0.223841 1 0.5 0 1
61 1 58.6136 43.7682 0 58.6136 43.7682 0 -408.811 663.06 82.5247 -33.2969 0.780488 0.62517 1 0.5 0 1
62 1 56.8261 19.3897 0 136.092 19.3897 0 -158.447 216.501 78.1247 63.782 0.549143 0.835728 1 0.5 0 1
63 1 12.0135 59.4787 0 -67.2525 -19.7873 0 -1193.4 422.505 123.537 -28.8287 0.980062 -0.198691 1 0.5 0 1
64 1 46.3863 27.0406 0 125.652 106.307 0 -178.362 256.967 6.93557 -51.9858 -0.999294 -0.0375673 1 0.5 0 1
65 1 27.1231 8.69674 0 185.655 87.9627 0 56.7626 -597.269 70.9018 70.5191 0.709018 0.705191 1 0.5 0 1
66 1 12.6374 44.8785 0 91.9034 124.144 0 1066.45 164.048 -63.3395 -99.0286 0.97462 0.223867 1 0.5 0 1
67 1 53.8597 42.2571 0 53.8597 42.2571 0 3.4019 -579.746 -163.308 -74.3086 -0.989404 0.145187 1 0.5 0 1
68 1 14.4002 40.8514 0 14.4002 40.8514 0 1025.07 181.556 58.5475 -81.1042 -0.77208 -0.635526 1 0.5 0 1
69 1 53.3118 20.1819 0 53.3118 20.1819 0 467.963 283.376 7.31358 8.73791 0.951299 0.308269 1 0.5 0 1
70 1 48.2231 37.5137 0 48.2231 116.78 0 228.5 428.654 -49.8666 -110.184 0.620354 0.784322 1 0.5 0 1
71 1 20.7051 6.32912 0 99.9711 6.32912 0 447.067 -162.185 98.802 -15.4328 0.98802 -0.154328 1 0.5 0 1
72 1 3.59519 56.6194 0 3.59519 56.6194 0 -411.111 789.148 -119.793 -245.586 -0.32759 -0.94482 1 0.5 0 1
73 1 77.9591 10.7768 0 -1.3069 10.7768 0 -65.4273 -135.617 -44.2123 28.2475 -0.914868 0.403753 1 0.5 0 1
74 1 57.098 21.439 0 57.098 100.705 0 76.9674 -141.905 -138.708 -132.122 0.693128 0.720815 1 0.5 0 1
75 1 75.4281 37.6351 0 -3.83793 37.6351 0 233.309 -565.446 -185.634 -7.01219 0.945789 0.324782 1 0.5 0 1
76 1 46.8418 22.7303 0 -32.4242 22.7303 0 -62.3729 -146.774 -7.68519 -44.2959 0.206013 0.978549 1 0.5 0 1
77 1 78.0079 33.9802 0 -1.25806 33.9802 0 134.089 -215.602 -56.6097 19.3719 0.963402 -0.26806 1 0.5 0 1
78 1 59.3505 16.4369 0 59.3505 95.7029 0 119.577 -528.041 -46.0016 52.9173 0.977322 0.211758 1 0.5 0 1
79 1 47.9165 58.5433 0 -31.3495 58.5433 0 26.0083 62.4804 -39.8227 -85.93 -0.535747 -0.844379 1 0.5 0 1
80 1 0.574638 26.4533 0 0.574638 -52.8127 0 -1029.6 -57.0081 58.1642 223.564 0.974418 -0.224745 1 0.5 0 1
81 1 47.5175 34.4632 0 126.784 34.4632 0 775.25 -1227.11 -47.6768 -17.421 -0.0167694 -0.999859 1 0.5 0 1
82 1 0.613339 38.2379 0 0.613339 38.2379 0 123.243 34.567 -147.883 165.049 0.324028 0.946048 1 0.5 0 1
83 1 41.4879 41.481 0 120.754 120.747 0 -48.9552 63.2422 -17.0724 107.311 0.732246 0.68104 1 0.5 0 1
84 1 75.9514 44.2451 0 -3.31462 44.2451 0 534.383 602.666 -242.515 -70.2299 -0.999968 -0.00802442 1 0.5 0 1
85 1 54.3881 14.7315 0 54.3881 14.7315 0 365.552 819.45 65.9882 13.9786 -0.717547 0.69651 1 0.5 0 1
86 1 10.5 39.7152 0 10.5 39.7152 0 -321.571 216.687 182.848 -56.7925 -0.983755 0.179516 1 0.5 0 1
87 1 10.964 41.647 0 10.964 41.647 0 -995.778 -450.323 42.4464 -192.817 -0.804806 -0.593538 1 0.5 0 1
88 1 14.755 63.1721 0 14.755 -16.0939 0 -828.43 -757.704 77.4821 20.5329 -0.995636 0.0933184 1 0.5 0 1
89 1 37.6016 74.9641 0 37.6016 -4.30186 0 685.209 -33.466 -64.1873 -76.6811 -0.641873 -0.766811 1 0.5 0 1
90 1 3.93182 37.5381 0 3.93182 37.5381 0 -417.756 482.956 182.211 -68.0877 -0.925681 0.378304 1 0.5 0 1
91 1 15.3942 57.967 0 15.3942 -21.299 0 472.068 538.11 -44.6307 132.277 -0.675995 -0.736906 1 0.5 0 1
92 1 2.34084 54.1821 0 2.34084 54.1821 0 -273.878 359.999 -112.142 150.464 0.525986 -0.850493 1 0.5 0 1
93 1 1.16381 44.7862 0 1.16381 44.7862 0 -309.263 14.9291 -66.1634 273.34 -0.260111 0.965579 1 0.5 0 1
94 1 69.8149 35.8144 0 69.8149 35.8144 0 37.0969 -57.7683 241.113 5.34634 0.948316 -0.317328 1 0.5 0 1
95 1 66.4778 48.1767 0 66.4778 48.1767 0 -1232.04 442.8 210.581 -82.0392 -0.829992 -0.557775 1 0.5 0 1
96 1 53.6292 41.2817 0 53.6292 41.2817 0 669.631 881.514 8.3053 -204.867 -0.473303 -0.880899 1 0.5 0 1
97 1 41.5638 28.2868 0 41.5638 -50.9792 0 105.638 656.596 -24.3176 -63.6376 0.371709 -0.928349 1 0.5 0 1
98 1 19.7139 49.118 0 19.7139 49.118 0 231.864 42.8465 -91.5653 -54.6839 -0.506539 -0.862217 1 0.5 0 1
99 1 44.4142 38.9456 0 44.4142 -40.3204 0 -252.924 -2.04518 78.0439 68.4832 0.997269 -0.0738502 1 0.5 0 1
100 1 72.2558 42.9445 0 72.2558 42.9445 0 -354.306 230.46 58.5201 -123.427 -0.206501 -0.978446 1 0.5 0 1
101 1 49.4519 46.1166 0 49.4519 -33.1494 0 -277.968 -839.19 142.834 163.505 -0.387785 0.92175 1 0.5 0 1
102 1 78.1042 42.1995 0 -1.16183 42.1995 0 -656.325 -454.733 294.137 -114.434 -0.158313 -0.987389 1 0.5 0 1
103 1 75.8574 75.8691 0 -82.6746 155.135 0 708.5 -293.42 -123.704 -21.1043 -0.843961 -0.536404 1 0.5 0 1
104 1 53.1302 42.8763 0 53.1302 122.142 0 -167.685 -14.8815 8.28734 20.6942 0.945695 0.325054 1 0.5 0 1
105 1 9.60471 16.7452 0 9.60471 16.7452 0 392.427 587.779 71.798 69.6063 0.71798 0.696063 1 0.5 0 1
106 1 27.3298 60.9895 0 27.3298 -18.2765 0 87.8447 -670.803 43.3163 -90.1316 0.433163 -0.901316 1 0.5 0 1
107 1 61.4337 36.6013 0 61.4337 36.6013 0 -41.0781 -171.129 -9.69876 122.127 -0.507583 -0.861603 1 0.5 0 1
108 1 78.4517 35.9437 0 -0.814255 115.21 0 -188.444 599.283 232.348 -89.0724 0.971258 -0.23803 1 0.5 0 1
109 1 10.6668 23.0101 0 -68.5992 102.276 0 -534.215 -718.586 -23.2101 47.2944 0.522009 0.85294 1 0.5 0 1
110 1 50.3629 30.2548 0 50.3629 30.2548 0 -2.80182 -73.6426 354.217 332.666 -0.957923 0.287025 1 0.5 0 1
111 1 73.198 13.6655 0 73.198 92.9315 0 -1292.13 359.147 1.50191 19.0329 0.104766 0.994497 1 0.5 0 1
112 1 9.95855 48.6931 0 9.95855 48.6931 0 174.541 265.197 35.8145 -58.3292 0.976274 -0.216541 1 0.5 0 1
113 1 13.4417 28.7344 0 -65.8243 108 0 179.071 1056.47 -121.196 -86.4453 -0.999028 0.0440905 1 0.5 0 1
114 1 53.8971 53.8366 0 53.8971 53.8366 0 -52.8409 -243.955 45.0639 89.4702 0.955111 0.296248 1 0.5 0 1
115 1 39.8388 47.3381 0 39.8388 -31.9279 0 55.068 1341.47 34.1732 -119.945 -0.333825 -0.942635 1 0.5 0 1
116 1 47.0841 20.2313 0 47.0841 -59.0347 0 575.196 77.58 7.82248 -23.636 0.851037 -0.525106 1 0.5 0 1
117 1 61.3671 67.911 0 61.3671 -11.355 0 881.921 -159.782 27.5307 -39.1359 0.956096 -0.293052 1 0.5 0 1
118 1 54.3701 40.6362 0 54.3701 40.6362 0 110.261 -138.507 -6.39528 -66.2174 0.953519 -0.301333 1 0.5 0 1
119 1 57.3845 15.1103 0 136.651 15.1103 0 -651.425 -70.2482 -51.1339 -16.4296 0.50567 -0.862727 1 0.5 0 1
120 1 45.9304 50.3812 0 125.196 -28.8848 0 1056.83 19.2724 -23.5494 102.466 -0.904893 -0.425639 1 0.5 0 1
121 1 27.9548 10.8637 0 -130.577 10.8637 0 845.557 221.893 20.6294 97.849 0.206294 0.97849 1 0.5 0 1
122 1 16.2754 16.8065 0 16.2754 96.0725 0 -256.067 -633.018 40.5917 65.7585 0.2771 0.960841 1 0.5 0 1
123 1 74.5978 31.0726 0 -4.66816 31.0726 0 142.766 620.511 76.0297 24.1171 -0.82716 0.561967 1 0.5 0 1
124 1 53.9266 73.8761 0 -25.3394 -5.38986 0 -513.534 -267.462 -96.129 -27.5537 -0.96129 -0.275537 1 0.5 0 1
125 1 65.6601 27.7319 0 65.6601 27.7319 0 -202.37 -591.899 69.594 62.6859 -0.38949 -0.921031 1 0.5 0 1
126 1 8.57594 34.5139 0 87.8419 113.78 0 130.528 -423.594 43.2826 123.53 0.848503 -0.529191 1 0.5 0 1
127 1 57.2605 30.0263 0 57.2605 109.292 0 -478.731 -92.7747 14.0485 179.958 0.706255 0.707957 1 0.5 0 1
128 1 3.03678 25.4238 0 -76.2292 25.4238 0 -214.469 373.605 -12.3929 -103.945 -0.634928 0.772571 1 0.5 0 1
129 1 67.2467 56.6777 0 67.2467 -22.5883 0 516.886 79.6456 -135.917 -115.502 -0.803683 -0.595057 1 0.5 0 1
130 1 73.2539 55.9089 0 73.2539 -23.3571 0 263.639 300.147 249.114 -90.9469 0.324993 -0.945716 1 0.5 0 1
131 1 3.2202 71.6752 0 3.2202 71.6752 0 -267.395 473.811 5.21205 32.6178 -0.0195643 -0.999809 1 0.5 0 1
132 1 59.3277 31.6609 0 -19.9383 110.927 0 313.924 150.072 -180.344 -341.769 0.978329 0.207058 1 0.5 0 1
133 1 17.7126 48.5835 0 17.7126 127.849 0 -553.303 395.819 -52.0648 -24.8607 -0.71419 -0.699952 1 0.5 0 1
134 1 11.8179 37.383 0 11.8179 37.383 0 46.3875 244.517 -188.605 -111.543 -0.566419 -0.824117 1 0.5 0 1
135 1 14.4039 53.1257 0 14.4039 132.392 0 -884.335 -166.092 48.7741 -75.871 0.0570183 0.998373 1 0.5 0 1
136 1 23.8716 15.1752 0 103.138 94.4412 0 -188.194 -253.359 33.5862 94.1911 0.335862 0.941911 1 0.5 0 1
137 1 41.7257 57.1918 0 120.992 57.1918 0 -92.7896 74.6679 -14.1647 -66.8183 -0.252622 -0.967565 1 0.5 0 1
138 1 47.9336 50.996 0 -31.3324 -28.27 0 132.215 -345.202 -237.907 121.052 0.844451 -0.535633 1 0.5 0 1
139 1 43.4102 42.2356 0 43.4102 -37.0304 0 -187.002 -359.345 77.9915 119.094 0.905712 -0.423894 1 0.5 0 1
140 1 76.9767 10.4097 0 -2.28934 10.4097 0 -848.713 -345.703 -19.2462 78.5938 -0.473768 0.88065 1 0.5 0 1
141 1 8.85249 56.4833 0 8.85249 56.4833 0 185.726 -383.512 -97.2997 112.364 0.996414 -0.0846082 1 0.5 0 1
142 1 21.5731 7.18993 0 -57.6929 86.4559 0 -39.654 434.709 20.0328 71.191 0.267297 0.963614 1 0.5 0 1
143 1 10.4978 35.1464 0 10.4978 114.412 0 525.782 -144.86 -149.521 -31.7586 0.846275 -0.532746 1 0.5 0 1
144 1 37.4779 12.6512 0 37.4779 12.6512 0 -117.382 -413.985 52.5753 11.0813 0.124856 0.992175 1 0.5 0 1
145 1 8.93725 65.9647 0 88.2032 65.9647 0 885.157 625.285 -88.0758 18.0931 0.303734 -0.952757 1 0.5 0 1
146 1 59.8463 62.7239 0 59.8463 -16.5421 0 147.544 323.41 -69.2488 47.9289 0.675942 -0.736955 1 0.5 0 1
147 1 78.403 69.1673 0 78.403 -10.0987 0 186.916 397.717 15.9337 -108.04 -0.998105 -0.0615258 1 0.5 0 1
148 1 51.2857 57.6294 0 130.552 57.6294 0 479.652 706.966 4.51845 108.75 -0.227678 0.973736 1 0.5 0 1
149 1 71.6437 30.3239 0 71.6437 109.59 0 -408.604 -231.998 227.741 140.188 -0.905316 0.42474 1 0.5 0 1
150 1 66.5934 35.2926 0 -12.6726 35.2926 0 -598.927 331.227 -161.308 -227.333 0.994685 0.102963 1 0.5 0 1
151 1 2.68279 56.289 0 81.9488 -22.977 0 -863.093 -579.856 200.802 72.4248 0.987923 0.154946 1 0.5 0 1
152 1 62.3736 65.1761 0 62.3736 65.1761 0 522.73 160.068 -153.207 -54.9087 0.56019 -0.828364 1 0.5 0 1
153 1 75.9204 59.4093 0 75.9204 59.4093 0 41.7006 288.733 64.8264 21.0441 -0.145913 -0.989297 1 0.5 0 1
154 1 2.00379 48.7201 0 2.00379 48.7201 0 188.623 570.431 156.051 -150.124 -0.149288 0.988794 1 0.5 0 1
155 1 68.7599 66.0851 0 -89.7721 -13.1809 0 825.284 407.864 -188.586 -323.628 -0.197598 -0.980283 1 0.5 0 1
156 1 73.2544 47.8103 0 73.2544 47.8103 0 808.492 -288.527 102.64 71.3398 -0.400449 -0.916319 1 0.5 0 1
157 1 5.57703 28.9906 0 5.57703 28.9906 0 -294.054 -450.857 -197.47 29.5864 0.544556 -0.838724 1 0.5 0 1
158 1 67.0251 38.4727 0 -12.2409 38.4727 0 -12.1887 1138.12 -8.32116 -33.4531 -0.42034 -0.907367 1 0.5 0 1
159 1 6.80642 5.39416 0 6.80642 84.6602 0 -64.9968 -440.741 -39.3615 82.2576 -0.94066 0.339349 1 0.5 0 1
160 1 13.1185 71.9571 0 13.1185 -7.30886 0 1483.09 442.186 61.8276 -83.5381 0.999937 0.0112565 1 0.5 0 1
161 1 44.2896 28.9094 0 44.2896 -50.3566 0 -602.821 182.767 94.7312 17.4937 0.533336 -0.845903 1 0.5 0 1
162 1 5.27299 51.5787 0 5.27299 51.5787 0 289.206 -113.63 -61.8769 46.7055 -0.609309 -0.792933 1 0.5 0 1
163 1 63.2429 48.8794 0 63.2429 48.8794 0 -27.9293 276.593 10.4816 -251.854 0.913693 0.406405 1 0.5 0 1
164 1 56.4445 63.8059 0 56.4445 -15.4601 0 -111.401 -163.347 55.4217 30.0898 0.138136 -0.990413 1 0.5 0 1
165 1 24.2944 35.5662 0 24.2944 35.5662 0 -102.621 -27.9937 93.0162 36.7148 0.930162 0.367148 1 0.5 0 1
166 1 9.7715 44.0133 0 9.7715 44.0133 0 -44.7163 509.504 -70.2779 -28.5868 0.396866 0.917877 1 0.5 0 1
167 1 64.9049 28.4047 0 64.9049 28.4047 0 -729.223 519.436 228.816 -10.6948 0.519063 -0.854736 1 0.5 0 1
168 1 13.5804 23.9543 0 -65.6856 103.22 0 -162.453 459.675 -92.6546 -25.8583 -0.644021 -0.765008 1 0.5 0 1
169 1 19.1697 58.3973 0 -60.0963 137.663 0 -636.101 -213.695 85.5963 77.3992 -0.927826 -0.373014 1 0.5 0 1
170 1 15.4124 53.4507 0 94.6784 132.717 0 467.694 60.3075 -78.1084 -25.2373 -0.11677 -0.993159 1 0.5 0 1
171 1 59.3783 68.2039 0 138.644 -11.0621 0 -202.381 -120.322 18.5199 -37.0272 -0.373846 -0.927491 1 0.5 0 1
172 1 7.17056 56.8361 0 7.17056 -22.4299 0 117.912 114.681 -189.362 47.6061 0.928125 -0.372268 1 0.5 0 1
173 1 42.3405 20.9779 0 42.3405 -58.2881 0 -32.9324 529.995 95.0857 -30.9632 0.950857 -0.309632 1 0.5 0 1
174 1 8.63742 50.9625 0 8.63742 50.9625 0 349.277 1158.15 71.6065 -123.784 -0.281719 0.959497 1 0.5 0 1
175 1 53.1634 61.9657 0 -26.1026 -17.3003 0 -233.297 425.729 -17.8253 -73.713 0.227708 -0.97373 1 0.5 0 1
176 1 10.1749 49.6867 0 10.1749 49.6867 0 -432.459 -1102.19 54.0972 -84.4794 0.658086 0.752943 1 0.5 0 1
177 1 2.50263 68.5424 0 2.50263 68.5424 0 125.391 565.847 -225.594 -85.3533 -0.957907 0.28708 1 0.5 0 1
178 1 56.8954 28.1019 0 -22.3706 107.368 0 -303.702 -163.915 136.231 -113.3 -0.531636 0.846973 1 0.5 0 1
179 1 3.25596 54.5389 0 3.25596 -24.7271 0 -607.487 -696.571 40.7329 8.2884 0.998455 -0.0555666 1 0.5 0 1
180 1 73.4946 40.648 0 73.4946 40.648 0 -367.274 259.837 136.458 110.664 -0.820362 0.571844 1 0.5 0 1
181 1 63.7323 15.5082 0 63.7323 15.5082 0 586.896 -52.7905 -110.515 -11.1052 -0.0489045 0.998803 1 0.5 0 1
182 1 12.3672 65.4867 0 -66.8988 65.4867 0 -115.631 125.672 12.9248 -64.2889 -0.982605 -0.18571 1 0.5 0 1
183 1 58.7849 56.333 0 58.7849 -22.933 0 89.2791 -216.758 98.1898 171.27 -0.928766 0.370668 1 0.5 0 1
184 1 63.3852 41.7025 0 63.3852 41.7025 0 -1267.21 280.84 125.246 -186.853 0.289919 -0.957051 1 0.5 0 1
185 1 61.0203 12.0065 0 -18.2457 12.0065 0 -601.218 -60.2092 79.0348 -12.3084 -0.440478 0.897763 1 0.5 0 1
186 1 51.4992 14.2011 0 -27.7668 93.4671 0 -108.343 229.085 -89.6204 44.3642 -0.896204 0.443642 1 0.5 0 1
187 1 55.4054 33.9328 0 -23.8606 113.199 0 618.39 -147.754 58.2931 -52.8275 -0.491998 0.870596 1 0.5 0 1
188 1 63.7601 14.5033 0 143.026 93.7693 0 305.18 902.585 -124.534 -56.6378 0.282432 0.959287 1 0.5 0 1
189 1 79.2014 74.2899 0 -0.0645537 74.2899 0 173.241 -82.1646 68.1817 3.8908 -0.913281 -0.40733 1 0.5 0 1
190 1 19.7272 52.8744 0 -59.5388 52.8744 0 69.5559 420.878 144.046 66.5767 -0.598535 0.801096 1 0.5 0 1
191 1 65.5118 16.3164 0 144.778 16.3164 0 -425.115 -287.004 18.0112 4.64808 -0.788284 -0.615311 1 0.5 0 1
192 1 58.7815 36.7298 0 58.7815 36.7298 0 -800.207 -678.676 -181.024 167.168 0.521619 0.853179 1 0.5 0 1
193 1 74.7412 12.4496 0 -4.52476 91.7156 0 184.838 768.941 102.316 -91.6734 -0.716153 0.697944 1 0.5 0 1
194 1 30.1884 47.7525 0 30.1884 -31.5135 0 -434.018 325.862 -5.35888 -99.8563 -0.0535888 -0.998563 1 0.5 0 1
195 1 53.7273 29.6929 0 53.7273 29.6929 0 324.703 314.606 -150.261 207.125 -0.999917 0.0129212 1 0.5 0 1
196 1 58.6569 40.2401 0 58.6569 40.2401 0 -454.004 -131.936 -19.3582 -134.998 -0.911969 -0.410259 1 0.5 0 1
197 1 70.8556 60.4533 0 -8.41035 60.4533 0 300.998 337.433 86.9752 -46.6212 0.829395 0.558663 1 0.5 0 1
198 1 73.3623 44.2566 0 73.3623 44.2566 0 -40.5883 228.373 102.72 66.5799 -0.637006 0.770859 1 0.5 0 1
199 1 65.2104 67.8257 0 -14.0556 -11.4403 0 -133.796 215.668 42.0838 94.3999 -0.0445746 -0.999006 1 0.5 0 1
200 1 3.1488 16.3629 0 82.4148 95.6289 0 -426.764 -117.142 -121.381 -15.3432 0.485234 0.874385 1 0.5 0 1
201 1 17.256 69.2693 0 17.256 69.2693 0 -323.504 700.63 -92.4835 38.9298 -0.915652 0.401973 1 0.5 0 1
202 1 56.7347 58.3907 0 -22.5313 -20.8753 0 -489.894 -805.727 -47.2255 221.39 0.64274 -0.766084 1 0.5 0 1
203 1 20.9593 32.3346 0 -58.3067 111.601 0 242.487 743.078 -80.5203 46.5952 -0.405156 0.914248 1 0.5 0 1
204 1 64.408 62.9246 0 64.408 -16.3414 0 587.394 -319.9 -41.1567 259.194 -0.45086 -0.892595 1 0.5 0 1
205 1 29.901 22.8381 0 29.901 102.104 0 481.203 -685.211 93.3994 35.7289 0.933994 0.357289 1 0.5 0 1
206 1 1.94854 58.0162 0 1.94854 -21.2498 0 -362.788 127.765 58.6259 16.7202 -0.681491 0.731826 1 0.5 0 1
207 1 58.1499 63.268 0 58.1499 63.268 0 -200.837 -823.824 31.1178 7.8038 0.684965 -0.728576 1 0.5 0 1
208 1 8.84604 31.9066 0 8.84604 31.9066 0 -344.94 749.39 135.137 -94.9071 -0.357979 0.93373 1 0.5 0 1
209 1 53.1411 26.7488 0 53.1411 106.015 0 -129.375 -501.062 -10.1318 207.918 0.990244 -0.139346 1 0.5 0 1
210 1 65.8227 61.5993 0 -13.4433 61.5993 0 -183.542 20.3474 -23.5728 -13.1268 -0.317441 0.948278 1 0.5 0 1
211 1 60.7874 41.7286 0 60.7874 41.7286 0 298.439 142.866 -209.818 -80.1621 -0.383324 -0.923614 1 0.5 0 1
212 1 38.1075 31.0526 0 196.639 31.0526 0 404.246 190.924 -87.6431 48.1528 -0.876431 0.481528 1 0.5 0 1
213 1 69.2613 64.4249 0 69.2613 64.4249 0 393.374 175.467 -205.677 52.4852 0.655138 0.755509 1 0.5 0 1
214 1 14.0367 66.5642 0 14.0367 66.5642 0 -596.805 -326.097 22.2987 -27.7748 -0.273698 -0.961816 1 0.5 0 1
215 1 55.3098 59.7635 0 55.3098 -19.5025 0 -427.612 -302.209 -11.8109 159.787 0.114822 -0.993386 1 0.5 0 1
216 1 14.6808 46.5442 0 14.6808 125.81 0 -586.742 562.992 -98.9876 -64.8018 -0.897146 0.441734 1 0.5 0 1
217 1 61.1968 75.4771 0 140.463 75.4771 0 -413.665 -133.698 112.306 22.6319 0.852568 0.522617 1 0.5 0 1
218 1 46.2709 47.7815 0 46.2709 47.7815 0 337.776 8.45808 -194.004 149.239 -0.871226 -0.490882 1 0.5 0 1
219 1 53.3389 43.8403 0 53.3389 43.8403 0 212.657 -43.2162 -122.173 44.9843 -0.837568 -0.546333 1 0.5 0 1
220 1 59.967 67.3519 0 59.967 -91.1801 0 102.358 -252.404 -23.6317 -4.12979 0.998976 0.0452337 1 0.5 0 1
221 1 50.4025 19.8226 0 -28.8635 178.355 0 840.673 -55.8328 82.2235 26.6706 -0.221905 0.975068 1 0.5 0 1
222 1 39.4584 36.0928 0 39.4584 36.0928 0 139.149 -644.587 3.3706 -36.9171 0.90739 0.42029 1 0.5 0 1
223 1 71.7004 36.3794 0 -7.56562 36.3794 0 543.861 -525.824 -90.5003 104.679 -0.463666 -0.88601 1 0.5 0 1
224 1 75.5042 61.022 0 -3.76179 61.022 0 -176.414 -432.452 47.6844 115.639 -0.924603 -0.380932 1 0.5 0 1
225 1 14.2235 28.0673 0 93.4895 -51.1987 0 15.4807 -215.127 89.7088 -3.88269 -0.844082 0.536215 1 0.5 0 1
226 1 71.4518 6.14614 0 -7.81419 6.14614 0 -1022.79 22.097 -11.6576 27.5667 -0.630517 0.776175 1 0.5 0 1
227 1 1.09764 36.5675 0 80.3636 36.5675 0 -131.193 151.274 -132.977 147.741 -0.870185 -0.492725 1 0.5 0 1
228 1 12.9075 63.6963 0 -66.3585 -15.5697 0 -49.7016 -372.235 81.7702 65.605 -0.75841 -0.651777 1 0.5 0 1
229 1 51.4312 39.5926 0 51.4312 39.5926 0 -709.778 -135.585 28.0979 160.535 -0.965227 0.261413 1 0.5 0 1
230 1 51.9323 38.0327 0 51.9323 117.299 0 49.474 -855.896 -65.8021 137.028 -0.85914 0.51174 1 0.5 0 1
231 1 5.0787 22.2425 0 5.0787 101.509 0 176.042 319.132 -132.87 -53.6479 -0.796128 0.605129 1 0.5 0 1
232 1 47.4854 23.4934 0 47.4854 -55.7726 0 176.569 120.832 200.97 45.6477 0.526131 0.850403 1 0.5 0 1
233 1 6.40669 44.7899 0 6.40669 44.7899 0 -85.1548 -34.5929 140.404 52.7773 -0.475453 0.879741 1 0.5 0 1
234 1 55.2318 70.4518 0 55.2318 -8.8142 0 142.38 633.946 -33.1941 9.42646 0.903818 -0.427916 1 0.5 0 1
235 1 38.8799 42.3029 0 38.8799 121.569 0 5.12863 -1142.36 173.889 97.198 0.0509461 0.998701 1 0.5 0 1
236 1 54.5607 76.9051 0 133.827 -2.3609 0 619.411 -388.248 7.05055 -99.7511 0.0705055 -0.997511 1 0.5 0 1
237 1 69.5369 69.9501 0 69.5369 -9.3159 0 -246.787 128.911 -79.9191 32.1757 -0.473055 -0.881033 1 0.5 0 1
238 1 71.4868 21.3559 0 71.4868 100.622 0 -649.6 -517.076 56.1627 99.1759 -0.922719 0.385473 1 0.5 0 1
239 1 3.10217 41.8312 0 82.3682 41.8312 0 -77.3148 82.3936 92.6837 12.9313 0.721817 -0.692084 1 0.5 0 1
240 1 72.632 17.1529 0 72.632 17.1529 0 -39.551 115.471 -83.959 25.1763 0.40289 -0.915249 1 0.5 0 1
241 1 47.9698 36.4502 0 47.9698 36.4502 0 640.683 572.466 -224.005 60.1452 -0.740774 -0.671755 1 0.5 0 1
242 1 2.12995 62.682 0 81.396 -16.584 0 -609.166 321.402 -47.2358 141.84 0.928152 0.3722 1 0.5 0 1
243 1 75.5608 73.7971 0 -82.9712 73.7971 0 -569.072 1006.99 -39.5112 -1.43838 -0.777598 -0.628761 1 0.5 0 1
244 1 60.8962 24.9548 0 60.8962 104.221 0 329.939 -208.051 -142.308 100.175 0.985234 0.171214 1 0.5 0 1
245 1 56.5157 50.1908 0 56.5157 50.1908 0 676.148 -213.515 -78.5305 162.538 -0.586713 -0.809795 1 0.5 0 1
246 1 49.0497 40.5708 0 49.0497 40.5708 0 -172.024 873.729 291.929 -115.019 -0.514036 -0.857769 1 0.5 0 1
247 1 66.7011 53.7544 0 66.7011 -25.5116 0 -339.463 -15.8147 -183.622 99.2746 -0.0507583 -0.998711 1 0.5 0 1
248 1 22.9505 54.9247 0 -56.3155 54.9247 0 68.0263 -60.6991 34.202 -72.2477 0.232721 -0.972544 1 0.5 0 1
249 1 35.0013 56.9443 0 114.267 -22.3217 0 299.239 -225.058 80.8057 -58.9104 0.808057 -0.589104 1 0.5 0 1
250 1 36.199 1.47345 0 194.731 80.7395 0 93.7918 -1.02241 64.06 -67.2684 0.808259 -0.588828 1 0.5 0 1
251 1 57.388 12.0852 0 57.388 170.617 0 45.1031 -324.99 68.6086 -63.9895 0.926145 0.377167 1 0.5 0 1
252 1 60.4839 21.0372 0 60.4839 100.303 0 124.753 294.398 56.4625 48.5593 -0.0776105 0.996984 1 0.5 0 1
253 1 16.7479 48.3021 0 16.7479 48.3021 0 -399.683 1032.55 180.363 -74.0215 -0.929696 0.368328 1 0.5 0 1
254 1 47.2914 33.4973 0 47.2914 112.763 0 72.3739 -693.33 160.318 87.394 0.990085 -0.140473 1 0.5 0 1
255 1 1.36355 33.9558 0 80.6295 113.222 0 -50.5188 -260.662 -117.865 200.135 0.100534 0.994934 1 0.5 0 1
256 1 68.571 41.6464 0 -10.695 41.6464 0 881.589 251.649 -188.364 -15.6124 0.309515 -0.950895 1 0.5 0 1
257 1 7.45521 37.8317 0 7.45521 117.098 0 -943.346 144.818 314.019 -69.2188 0.106638 -0.994298 1 0.5 0 1
258 1 7.61563 25.8873 0 7.61563 -53.3787 0 -103.77 -243.149 200.043 5.25631 0.676344 0.736586 1 0.5 0 1
259 1 44.9693 57.6174 0 44.9693 57.6174 0 -330.377 151.343 -64.6562 -34.636 -0.185749 -0.982597 1 0.5 0 1
260 1 69.1711 68.0104 0 148.437 -11.2556 0 192.532 357.151 26.9157 -133.039 0.949836 -0.31275 1 0.5 0 1
261 1 76.2511 77.654 0 -3.01489 -1.61198 0 -402.387 -343.802 99.1351 13.1236 0.991351 0.131236 1 0.5 0 1
262 1 56.9646 59.3874 0 136.231 -19.8786 0 -242.454 720.693 -33.4528 -175.819 -0.0524503 -0.998624 1 0.5 0 1
263 1 4.26057 11.5249 0 -75.0054 -67.7411 0 -926.937 -443.328 -10.6126 -99.4353 -0.106126 -0.994353 1 0.5 0 1
264 1 19.6423 43.0534 0 178.174 -36.2126 0 403.12 83.3102 28.0699 -68.6335 -0.853206 -0.521575 1 0.5 0 1
265 1 52.6287 28.4049 0 52.6287 107.671 0 -567.804 902.987 238.325 -165.048 0.99596 0.089795 1 0.5 0 1
266 1 56.0399 51.8276 0 56.0399 51.8276 0 319.234 40.8623 -136.889 227.447 0.460255 0.887787 1 0.5 0 1
267 1 72.3272 62.6779 0 -6.93879 -16.5881 0 -440.411 706.583 -62.5101 -110.865 -0.874281 -0.485421 1 0.5 0 1
268 1 66.299 59.9778 0 66.299 59.9778 0 -1087.16 187.062 -51.6489 8.20705 0.95611 -0.293008 1 0.5 0 1
269 1 15.6116 54.4383 0 94.8776 54.4383 0 241.183 684.073 52.1393 -165.567 -0.765708 0.643188 1 0.5 0 1
270 1 78.8022 3.0454 0 78.8022 3.0454 0 226.366 469.439 -66.6865 39.5247 -0.997798 0.0663335 1 0.5 0 1
271 1 66.5218 13.7055 0 66.5218 13.7055 0 228.956 -163.726 -64.5097 78.2248 0.686866 0.726784 1 0.5 0 1
272 1 50.9534 37.6833 0 50.9534 37.6833 0 -1600.92 488.811 133.277 129.986 0.998643 0.0520762 1 0.5 0 1
273 1 59.938 49.4726 0 59.938 49.4726 0 602.566 279.474 -282.994 221.869 0.762281 0.647246 1 0.5 0 1
274 1 59.246 12.0213 0 59.246 12.0213 0 391.914 416.427 21.5059 1.66338 0.995788 -0.091681 1 0.5 0 1
275 1 6.96184 60.5743 0 86.2278 -18.6917 0 -396.873 -46.6271 90.5361 -112.712 -0.434422 0.900709 1 0.5 0 1
276 1 57.9052 44.4392 0 57.9052 44.4392 0 -898.675 -714.471 -97.524 -37.8041 0.342226 0.939618 1 0.5 0 1
277 1 55.4142 13.4985 0 -23.8518 13.4985 0 714.051 -517.073 98.5434 -17.0059 0.985434 -0.170059 1 0.5 0 1
278 1 9.80676 32.1862 0 -69.4592 111.452 0 229.542 -175.362 -60.0332 -68.0083 0.12099 -0.992654 1 0.5 0 1
279 1 30.1171 70.2128 0 109.383 -88.3192 0 232.151 -107.962 12.3338 -105.418 -0.567938 -0.823071 1 0.5 0 1
280 1 14.432 11.7916 0 -64.834 -67.4744 0 265.289 -295.462 -85.245 -22.1777 -0.951295 -0.308282 1 0.5 0 1
281 1 68.001 56.0059 0 68.001 56.0059 0 428.012 -34.1076 52.3564 175.166 -0.647264 0.762266 1 0.5 0 1
282 1 47.78 46.4794 0 47.78 -32.7866 0 162.225 379.519 32.8862 -61.3129 0.699668 -0.714468 1 0.5 0 1
283 1 68.9534 30.5031 0 -10.3126 109.769 0 73.4645 -275.684 -43.5324 -21.2268 -0.999399 0.0346673 1 0.5 0 1
284 1 6.32118 28.3289 0 6.32118 107.595 0 511.331 -810.217 -180.349 -142.327 0.356961 0.934119 1 0.5 0 1
285 1 65.417 34.0824 0 65.417 34.0824 0 557.627 236.455 -132.761 24.5936 0.960729 -0.277487 1 0.5 0 1